 Entering Gaussian System, Link 0=g09
 Initial command:
 /apps/gaussian/g09/em64t-sse4_2/l1.exe "/ufrc/chm6580/share/aravinda1879/multi_confo/ace_parm/Gau-24148.inp" -scrdir="/ufrc/chm6580/share/aravinda1879/multi_confo/ace_parm/"
 Entering Link 1 = /apps/gaussian/g09/em64t-sse4_2/l1.exe PID=     24150.
  
 Copyright (c) 1988,1990,1992,1993,1995,1998,2003,2009,2013,
            Gaussian, Inc.  All Rights Reserved.
  
 This is part of the Gaussian(R) 09 program.  It is based on
 the Gaussian(R) 03 system (copyright 2003, Gaussian, Inc.),
 the Gaussian(R) 98 system (copyright 1998, Gaussian, Inc.),
 the Gaussian(R) 94 system (copyright 1995, Gaussian, Inc.),
 the Gaussian 92(TM) system (copyright 1992, Gaussian, Inc.),
 the Gaussian 90(TM) system (copyright 1990, Gaussian, Inc.),
 the Gaussian 88(TM) system (copyright 1988, Gaussian, Inc.),
 the Gaussian 86(TM) system (copyright 1986, Carnegie Mellon
 University), and the Gaussian 82(TM) system (copyright 1983,
 Carnegie Mellon University). Gaussian is a federally registered
 trademark of Gaussian, Inc.
  
 This software contains proprietary and confidential information,
 including trade secrets, belonging to Gaussian, Inc.
  
 This software is provided under written license and may be
 used, copied, transmitted, or stored only in accord with that
 written license.
  
 The following legend is applicable only to US Government
 contracts under FAR:
  
                    RESTRICTED RIGHTS LEGEND
  
 Use, reproduction and disclosure by the US Government is
 subject to restrictions as set forth in subparagraphs (a)
 and (c) of the Commercial Computer Software - Restricted
 Rights clause in FAR 52.227-19.
  
 Gaussian, Inc.
 340 Quinnipiac St., Bldg. 40, Wallingford CT 06492
  
  
 ---------------------------------------------------------------
 Warning -- This program may not be used in any manner that
 competes with the business of Gaussian, Inc. or will provide
 assistance to any competitor of Gaussian, Inc.  The licensee
 of this program is prohibited from giving any competitor of
 Gaussian, Inc. access to this program.  By using this program,
 the user acknowledges that Gaussian, Inc. is engaged in the
 business of creating and licensing software in the field of
 computational chemistry and represents and warrants to the
 licensee that it is not a competitor of Gaussian, Inc. and that
 it will not use this program in any manner prohibited above.
 ---------------------------------------------------------------
  

 Cite this work as:
 Gaussian 09, Revision D.01,
 M. J. Frisch, G. W. Trucks, H. B. Schlegel, G. E. Scuseria, 
 M. A. Robb, J. R. Cheeseman, G. Scalmani, V. Barone, B. Mennucci, 
 G. A. Petersson, H. Nakatsuji, M. Caricato, X. Li, H. P. Hratchian, 
 A. F. Izmaylov, J. Bloino, G. Zheng, J. L. Sonnenberg, M. Hada, 
 M. Ehara, K. Toyota, R. Fukuda, J. Hasegawa, M. Ishida, T. Nakajima, 
 Y. Honda, O. Kitao, H. Nakai, T. Vreven, J. A. Montgomery, Jr., 
 J. E. Peralta, F. Ogliaro, M. Bearpark, J. J. Heyd, E. Brothers, 
 K. N. Kudin, V. N. Staroverov, T. Keith, R. Kobayashi, J. Normand, 
 K. Raghavachari, A. Rendell, J. C. Burant, S. S. Iyengar, J. Tomasi, 
 M. Cossi, N. Rega, J. M. Millam, M. Klene, J. E. Knox, J. B. Cross, 
 V. Bakken, C. Adamo, J. Jaramillo, R. Gomperts, R. E. Stratmann, 
 O. Yazyev, A. J. Austin, R. Cammi, C. Pomelli, J. W. Ochterski, 
 R. L. Martin, K. Morokuma, V. G. Zakrzewski, G. A. Voth, 
 P. Salvador, J. J. Dannenberg, S. Dapprich, A. D. Daniels, 
 O. Farkas, J. B. Foresman, J. V. Ortiz, J. Cioslowski, 
 and D. J. Fox, Gaussian, Inc., Wallingford CT, 2013.
 
 ******************************************
 Gaussian 09:  ES64L-G09RevD.01 24-Apr-2013
                18-Oct-2016 
 ******************************************
 %chk=d-kynurenine_r_o_o_cap_2.chk
 -------------------------------------------------------------
 # opt hf/6-31g* iop(6/33=2,6/42=6) pop=mk scf=tight test popt
 -------------------------------------------------------------
 1/38=1/1,7;
 2/12=2,17=6,18=5,40=1/2;
 3/5=1,6=6,7=1,11=9,16=1,25=1,30=1/1,2,3;
 4//1;
 5/5=2,32=2,38=5/2;
 6/7=2,8=2,9=2,10=2,15=8,20=1,28=1,33=2,42=6/1,2;
 1//7,1;
 2/12=2,17=6,18=5,40=1/2;
 3/5=1,6=6,7=1,11=9,16=1,25=1,30=1/1,2,3;
 4/5=5,16=3,69=1/1;
 5/5=2,32=2,38=5/2;
 6/7=2,8=2,9=2,10=2,15=8,20=1,28=1,33=2,42=6/1,2;
 1//7(1);
 99/9=1/99;
 3/5=1,6=6,7=1,11=9,16=1,25=1,30=1/1,2,3;
 4/5=5,16=3,69=1/1;
 5/5=2,32=2,38=5/2;
 6/7=2,8=2,9=2,10=2,15=8,20=1,28=1,33=2,42=6/1,2;
 1//7(-4);
 99/9=1/99;
 -------------------
 Title Card Required
 -------------------
 Symbolic Z-matrix:
 Charge =  0 Multiplicity = 1
 C
 C                    1    B1
 C                    2    B2       1    A1
 C                    3    B3       2    A2       1    D1       0
 C                    4    B4       3    A3       2    D2       0
 C                    1    B5       2    A4       3    D3       0
 H                    1    B6       6    A5       5    D4       0
 H                    4    B7       3    A6       2    D5       0
 H                    5    B8       4    A7       3    D6       0
 H                    6    B9       1    A8       2    D7       0
 N                    2    B10      1    A9       6    D8       0
 H                    11   B11      2    A10      1    D9       0
 H                    11   B12      2    A11      1    D10      0
 C                    3    B13      2    A12      1    D11      0
 C                    14   B14      3    A13      2    D12      0
 H                    15   B15      14   A14      3    D13      0
 H                    15   B16      14   A15      3    D14      0
 C                    15   B17      14   A16      3    D15      0
 H                    18   B18      15   A17      14   D16      0
 C                    18   B19      15   A18      14   D17      0
 N                    18   B20      15   A19      14   D18      0
 H                    21   B21      18   A20      15   D19      0
 O                    20   B22      18   A21      15   D20      0
 O                    14   B23      3    A22      2    D21      0
 C                    21   B24      18   A23      15   D22      0
 C                    20   B25      18   A24      15   D23      0
 O                    25   B26      21   A25      18   D24      0
 O                    26   B27      20   A26      18   D25      0
 C                    26   B28      20   A27      18   D26      0
 H                    29   B29      26   A28      20   D27      0
 H                    29   B30      26   A29      20   D28      0
 H                    29   B31      26   A30      20   D29      0
 C                    25   B32      21   A31      18   D30      0
 H                    33   B33      25   A32      21   D31      0
 H                    33   B34      25   A33      21   D32      0
 H                    33   B35      25   A34      21   D33      0
 N                    20   B36      18   A35      15   D34      0
 H                    37   B37      20   A36      18   D35      0
       Variables:
  B1                    1.41099                  
  B2                    1.41669                  
  B3                    1.40708                  
  B4                    1.37152                  
  B5                    1.37041                  
  B6                    1.07327                  
  B7                    1.07119                  
  B8                    1.07124                  
  B9                    1.07337                  
  B10                   1.35671                  
  B11                   0.98964                  
  B12                   0.99171                  
  B13                   1.46289                  
  B14                   1.51297                  
  B15                   1.08482                  
  B16                   1.08222                  
  B17                   1.53512                  
  B18                   1.07469                  
  B19                   1.51267                  
  B20                   1.458                    
  B21                   0.99381                  
  B22                   1.20422                  
  B23                   1.23733                  
  B24                   1.35849                  
  B25                   2.47052                  
  B26                   1.22819                  
  B27                   1.19812                  
  B28                   1.49048                  
  B29                   1.08184                  
  B30                   1.07785                  
  B31                   1.08186                  
  B32                   1.50377                  
  B33                   1.0828                   
  B34                   1.08429                  
  B35                   1.07815                  
  B36                   1.36483                  
  B37                   1.                       
  A1                  118.28956                  
  A2                  118.54452                  
  A3                  122.44357                  
  A4                  121.29714                  
  A5                  120.20867                  
  A6                  119.13906                  
  A7                  120.75799                  
  A8                  119.33523                  
  A9                  118.77895                  
  A10                 120.04982                  
  A11                 120.25203                  
  A12                 121.23065                  
  A13                 120.5303                   
  A14                 109.38203                  
  A15                 110.69958                  
  A16                 112.25681                  
  A17                 110.30131                  
  A18                 111.69172                  
  A19                 110.31858                  
  A20                 117.66408                  
  A21                 123.20078                  
  A22                 122.53941                  
  A23                 122.11797                  
  A24                 135.15942                  
  A25                 121.6744                   
  A26                  97.56571                  
  A27                 135.32518                  
  A28                 109.91021                  
  A29                 109.53852                  
  A30                 109.60733                  
  A31                 115.96426                  
  A32                 111.80546                  
  A33                 109.71546                  
  A34                 109.00494                  
  A35                 112.5749                   
  A36                 125.92174                  
  D1                    0.27163                  
  D2                   -0.22045                  
  D3                   -0.15219                  
  D4                  179.90265                  
  D5                  179.72988                  
  D6                 -179.94727                  
  D7                 -179.98506                  
  D8                  179.77895                  
  D9                   -1.34705                  
  D10                -178.93241                  
  D11                 179.75024                  
  D12                -178.20864                  
  D13                  65.39915                  
  D14                 -53.21312                  
  D15                -173.074                    
  D16                  61.75474                  
  D17                 -60.00593                  
  D18                -178.40955                  
  D19                  85.49718                  
  D20                 -57.91201                  
  D21                   0.98292                  
  D22                 -91.14343                  
  D23                 112.01159                  
  D24                   1.41767                  
  D25                -137.40635                  
  D26                  44.24284                  
  D27                  55.34692                  
  D28                 176.33372                  
  D29                 -62.90389                  
  D30                -177.6894                   
  D31                 -43.09326                  
  D32                  76.8928                   
  D33                -164.26202                  
  D34                 128.59982                  
  D35                  90.42982                  
 
 Guess transition structure using the linear synchronous transit pathway.
                          Input orientation:                          
 ---------------------------------------------------------------------
 Center     Atomic      Atomic             Coordinates (Angstroms)
 Number     Number       Type             X           Y           Z
 ---------------------------------------------------------------------
      1          6           0        0.000000    0.000000    0.000000
      2          6           0        0.000000    0.000000    1.410989
      3          6           0        1.247489    0.000000    2.082400
      4          6           0        2.425330    0.005860    1.312650
      5          6           0        2.408048    0.007093   -0.058765
      6          6           0        1.170990    0.003110   -0.711896
      7          1           0       -0.943259   -0.001468   -0.512024
      8          1           0        3.373782    0.010324    1.810511
      9          1           0        3.321621    0.010755   -0.618164
     10          1           0        1.134243    0.003257   -1.784633
     11          7           0       -1.189133    0.001429    2.064152
     12          1           0       -2.035754    0.022584    1.552124
     13          1           0       -1.214679    0.017421    3.055402
     14          6           0        1.322554    0.005453    3.543350
     15          6           0        2.662934    0.046112    4.243928
     16          1           0        3.151960    0.990753    4.030967
     17          1           0        3.306098   -0.747042    3.885538
     18          6           0        2.530163   -0.125763    5.763606
     19          1           0        2.099687   -1.083044    5.994388
     20          6           0        1.681148    0.965263    6.377606
     21          7           0        3.839856   -0.042532    6.398865
     22          1           0        4.185168    0.860856    6.627595
     23          8           0        1.939121    2.137169    6.276458
     24          8           0        0.315103   -0.007603    4.261579
     25          6           0        4.608056   -1.141573    6.616777
     26          6           0       -0.537123    1.058009    7.461190
     27          8           0        4.246458   -2.261281    6.264721
     28          8           0       -0.928520    2.060100    6.933824
     29          6           0       -1.256858    0.235601    8.474677
     30          1           0       -0.660212    0.153212    9.373345
     31          1           0       -2.205705    0.693387    8.702457
     32          1           0       -1.411298   -0.763112    8.088487
     33          6           0        5.910298   -0.903686    7.330154
     34          1           0        6.419023   -0.024095    6.956031
     35          1           0        5.726656   -0.762728    8.389437
     36          1           0        6.543539   -1.766841    7.202139
     37          7           0        0.684427    0.471111    7.168251
     38          1           0        0.749447    0.289539    8.149477
 ---------------------------------------------------------------------
                    Distance matrix (angstroms):
                    1          2          3          4          5
     1  C    0.000000
     2  C    1.410989   0.000000
     3  C    2.427471   1.416693   0.000000
     4  C    2.757773   2.427330   1.407075   0.000000
     5  C    2.408775   2.821156   2.435474   1.371524   0.000000
     6  C    1.370410   2.424431   2.795344   2.381630   1.398895
     7  H    1.073270   2.141896   3.395646   3.831042   3.381830
     8  H    3.828899   3.397371   2.143631   1.071189   2.104007
     9  H    3.378669   3.892396   3.405170   2.128709   1.071240
    10  H    2.114576   3.390947   3.868692   3.355604   2.145044
    11  N    2.382176   1.356709   2.436690   3.691764   4.176903
    12  H    2.560058   2.040766   3.325866   4.467539   4.726794
    13  H    3.288043   2.044466   2.647510   4.035714   4.777268
    14  C    3.782130   2.509211   1.462888   2.488401   3.762118
    15  C    5.010416   3.888301   2.584147   2.941167   4.310412
    16  H    5.212019   4.216720   2.899227   2.981149   4.271639
    17  H    5.156138   4.196635   2.836768   2.821766   4.114941
    18  C    6.295769   5.036151   3.900302   4.454136   5.825167
    19  H    6.443164   5.156473   4.147635   4.817720   6.158258
    20  C    6.665722   5.331535   4.423640   5.208458   6.547774
    21  N    7.462692   6.294856   5.035281   5.279471   6.614645
    22  H    7.885538   6.743121   5.479948   5.663628   6.970974
    23  O    6.908083   5.656895   4.757727   5.423861   6.700161
    24  O    4.273219   2.867962   2.370279   3.626213   4.800626
    25  C    8.143655   7.045395   5.758227   5.849330   7.121961
    26  C    7.554948   6.165453   5.765033   6.905627   8.144211
    27  O    7.898894   6.834069   5.621300   5.742773   6.965037
    28  O    7.292741   5.967232   5.702222   6.860452   8.015224
    29  C    8.570610   7.178501   6.869386   8.056421   9.289961
    30  H    9.397816   7.991149   7.537949   8.632328   9.919691
    31  H    9.004370   7.649276   7.498700   8.748054   9.925560
    32  H    8.246073   6.867538   6.612456   7.824513   9.030965
    33  C    9.459357   8.413369   7.077949   7.013033   8.227478
    34  H    9.465241   8.482447   7.106168   6.913626   8.080609
    35  H   10.186216   9.059530   7.773250   7.846681   9.109221
    36  H    9.889916   8.914990   7.575065   7.401905   8.542239
    37  N    7.216246   5.816910   5.138566   6.126603   7.444188
    38  H    8.188985   6.786215   6.094366   7.044945   8.378900
                    6          7          8          9         10
     6  C    0.000000
     7  H    2.123680   0.000000
     8  H    3.348863   4.902158   0.000000
     9  H    2.152686   4.266218   2.429236   0.000000
    10  H    1.073367   2.436302   4.235640   2.478977   0.000000
    11  N    3.643710   2.587884   4.569968   5.248028   4.495689
    12  H    3.925477   2.335558   5.415718   5.780290   4.602521
    13  H    4.459165   3.577786   4.754343   5.837221   5.379923
    14  C    4.257945   4.645429   2.685199   4.616763   5.331310
    15  C    5.175706   5.968749   2.535370   4.906634   6.219508
    16  H    5.233968   6.196296   2.437390   4.754324   6.234383
    17  H    5.124238   6.160476   2.209959   4.567038   6.118067
    18  C    6.617861   7.173817   4.044400   6.432110   7.677314
    19  H    6.856854   7.263795   4.508170   6.812882   7.913615
    20  C    7.172658   7.435663   4.963393   7.248657   8.236911
    21  N    7.595252   8.404776   4.612267   7.036342   8.619285
    22  H    7.980546   8.832809   4.958432   7.346388   8.989394
    23  O    7.347198   7.678891   5.150379   7.346343   8.377505
    24  O    5.046593   4.936679   3.919640   5.731612   6.101458
    25  C    8.175155   9.106961   5.094162   7.438222   9.163062
    26  C    8.416043   8.053544   6.951474   9.014577   9.454692
    27  O    7.953562   8.829733   5.075601   7.306954   8.922225
    28  O    8.191225   7.725990   6.997122   8.904832   9.192229
    29  C    9.504821   8.995296   8.118170  10.182965  10.536830
    30  H   10.251239   9.890630   8.572630  10.756651  11.302346
    31  H   10.025398   9.326482   8.893603  10.857776  11.027719
    32  H    9.203371   8.646846   7.931467   9.940079  10.224754
    33  C    9.378586  10.453947   6.142946   8.409115  10.330179
    34  H    9.291915  10.486922   5.979218   8.183125  10.214149
    35  H   10.206609  11.149139   7.029644   9.355178  11.188775
    36  H    9.727742  10.893897   6.501948   8.642786  10.637472
    37  N    7.909012   7.865069   6.012515   8.233771   8.976377
    38  H    8.876016   8.830149   6.866409   9.141407   9.945680
                   11         12         13         14         15
    11  N    0.000000
    12  H    0.989640   0.000000
    13  H    0.991708   1.712902   0.000000
    14  C    2.914895   3.904293   2.583755   0.000000
    15  C    4.426267   5.415167   4.055774   1.512971   0.000000
    16  H    4.867464   5.830471   4.578934   2.134318   1.084825
    17  H    4.907622   5.879841   4.659502   2.148904   1.082218
    18  C    5.247409   6.213388   4.623713   2.530825   1.535119
    19  H    5.238241   6.169116   4.564393   2.792194   2.157858
    20  C    5.270045   6.163544   4.507911   3.013773   2.522166
    21  N    6.639457   7.616950   6.060583   3.806977   2.456981
    22  H    7.102586   8.072358   6.529188   4.294047   2.943276
    23  O    5.664881   6.526134   4.981465   3.520546   3.004597
    24  O    2.662985   3.587281   1.948261   1.237328   2.348512
    25  C    7.459239   8.434820   6.923215   4.642860   3.290062
    26  C    5.538004   6.183450   4.577431   4.462705   4.649201
    27  O    7.232584   8.178679   6.731733   4.592728   3.451842
    28  O    5.293368   5.860044   4.392787   4.558971   4.918356
    29  C    6.415158   6.969490   5.423830   5.569947   5.770608
    30  H    7.329877   7.942335   6.343681   6.159710   6.112748
    31  H    6.751246   7.183740   5.773067   6.287945   6.633333
    32  H    6.076717   6.612965   5.097042   5.359375   5.659933
    33  C    8.885490   9.868300   8.359859   6.017792   4.579550
    34  H    9.045173  10.034323   8.572633   6.133617   4.633426
    35  H    9.403260  10.374034   8.788783   6.593237   5.217841
    36  H    9.450920  10.427319   8.976022   6.617133   5.205469
    37  N    5.457348   6.256312   4.552797   3.709979   3.556231
    38  H    6.393143   7.166147   5.466392   4.650328   4.355915
                   16         17         18         19         20
    16  H    0.000000
    17  H    1.750668   0.000000
    18  C    2.152970   2.124900   0.000000
    19  H    3.043507   2.452667   1.074689   0.000000
    20  C    2.769594   3.432616   1.512667   2.125462   0.000000
    21  N    2.673541   2.664215   1.458004   2.067475   2.382461
    22  H    2.797654   3.298026   2.111618   2.920433   2.518632
    23  O    2.797763   3.987956   2.394412   3.236528   1.204220
    24  O    3.016232   3.103905   2.678907   2.709971   2.700022
    25  C    3.654236   3.051297   2.465240   2.585094   3.614243
    26  C    5.037885   5.551021   3.700183   3.699781   2.470523
    27  O    4.094301   2.972828   2.785178   2.463727   4.123608
    28  O    5.120586   5.924870   4.255573   4.464519   2.884167
    29  C    6.305116   6.545712   4.671404   4.376876   3.682661
    30  H    6.616278   6.830673   4.825612   4.534613   3.887910
    31  H    7.114480   7.460397   5.633499   5.387555   4.537233
    32  H    6.353175   6.318138   4.620217   4.100563   3.934161
    33  C    4.699145   4.321085   3.805857   4.041930   4.720808
    34  H    4.501068   4.431803   4.068837   4.550032   4.874511
    35  H    5.357240   5.113165   4.185484   4.358184   4.837308
    36  H    5.400321   4.745614   4.568336   4.655541   5.638004
    37  N    4.025084   4.374158   2.395001   2.407553   1.364830
    38  H    4.819325   5.078596   3.005961   2.889903   2.112864
                   21         22         23         24         25
    21  N    0.000000
    22  H    0.993815   0.000000
    23  O    2.894628   2.607105   0.000000
    24  O    4.122268   4.618404   3.361134   0.000000
    25  C    1.358495   2.046625   4.241365   5.026161   0.000000
    26  C    4.636558   4.799352   2.949569   3.478409   5.658981
    27  O    2.259682   3.143751   4.966920   4.954513   1.228187
    28  O    5.238764   5.261347   2.943032   3.600401   6.403507
    29  C    5.510249   5.780856   4.320001   4.503377   6.304412
    30  H    5.397819   5.614054   4.503701   5.206463   6.085210
    31  H    6.511292   6.721336   5.014934   5.154344   7.358294
    32  H    5.563153   6.007654   4.787524   4.265733   6.208203
    33  C    2.428089   2.565788   5.111489   6.444015   1.503772
    34  H    2.638726   2.425101   5.020199   6.672195   2.154866
    35  H    2.835679   2.848912   5.217231   6.847944   2.130050
    36  H    3.305812   3.577262   6.107277   7.108814   2.116531
    37  N    3.288239   3.563622   2.268326   2.968890   4.277820
    38  H    3.567287   3.800882   2.887431   3.923353   4.391596
                   26         27         28         29         30
    26  C    0.000000
    27  O    5.944062   0.000000
    28  O    1.198120   6.775133   0.000000
    29  C    1.490480   6.434657   2.410567   0.000000
    30  H    2.118997   6.290368   3.107970   1.081840   0.000000
    31  H    2.111365   7.503535   2.574330   1.077852   1.769302
    32  H    2.115223   6.130321   3.088179   1.081861   1.747754
    33  C    6.740524   2.397202   7.463950   7.346838   6.961556
    34  H    7.057910   3.194205   7.637457   7.828976   7.482674
    35  H    6.588752   2.991834   7.374181   7.055026   6.526799
    36  H    7.627756   2.529784   8.399353   8.153239   7.764970
    37  N    1.386523   4.579345   2.276278   2.351765   2.602221
    38  H    1.649105   4.721024   2.725486   2.033205   1.871784
                   31         32         33         34         35
    31  H    0.000000
    32  H    1.769020   0.000000
    33  C    8.384711   7.362106   0.000000
    34  H    8.828971   7.946227   1.082797   0.000000
    35  H    8.070974   7.144296   1.084285   1.754880   0.000000
    36  H    9.211566   8.066754   1.078155   1.764437   1.756478
    37  N    3.279643   2.600424   5.406109   5.759849   5.332704
    38  H    3.033448   2.404291   5.359987   5.802307   5.092883
                   36         37         38
    36  H    0.000000
    37  N    6.272063   0.000000
    38  H    6.220743   1.000000   0.000000
 Symmetry turned off by external request.
 Stoichiometry    C14H17N3O4
 Framework group  C1[X(C14H17N3O4)]
 Deg. of freedom   108
 Full point group                 C1      NOp   1
 Rotational constants (GHZ):      0.3649299      0.2008767      0.1419425
 Standard basis: 6-31G(d) (6D, 7F)
   349 basis functions,   656 primitive gaussians,   349 cartesian basis functions
    77 alpha electrons       77 beta electrons
       nuclear repulsion energy      1666.4975312296 Hartrees.
 NAtoms=   38 NActive=   38 NUniq=   38 SFac= 1.00D+00 NAtFMM=   60 NAOKFM=F Big=F
 Integral buffers will be    131072 words long.
 Raffenetti 1 integral format.
 Two-electron integral symmetry is turned off.
 One-electron integrals computed using PRISM.
 NBasis=   349 RedAO= T EigKep=  3.52D-04  NBF=   349
 NBsUse=   349 1.00D-06 EigRej= -1.00D+00 NBFU=   349
 ExpMin= 1.61D-01 ExpMax= 5.48D+03 ExpMxC= 8.25D+02 IAcc=1 IRadAn=         1 AccDes= 0.00D+00
 Harris functional with IExCor=  205 and IRadAn=       1 diagonalized for initial guess.
 HarFok:  IExCor=  205 AccDes= 0.00D+00 IRadAn=         1 IDoV= 1 UseB2=F ITyADJ=14
 ICtDFT=  3500011 ScaDFX=  1.000000  1.000000  1.000000  1.000000
 FoFCou: FMM=F IPFlag=           0 FMFlag=      100000 FMFlg1=           0
         NFxFlg=           0 DoJE=T BraDBF=F KetDBF=T FulRan=T
         wScrn=  0.000000 ICntrl=     500 IOpCl=  0 I1Cent=   200000004 NGrid=           0
         NMat0=    1 NMatS0=      1 NMatT0=    0 NMatD0=    1 NMtDS0=    0 NMtDT0=    0
 Symmetry not used in FoFCou.
 Requested convergence on RMS density matrix=1.00D-08 within 128 cycles.
 Requested convergence on MAX density matrix=1.00D-06.
 Requested convergence on             energy=1.00D-06.
 No special actions if energy rises.
 Integral accuracy reduced to 1.0D-05 until final iterations.
 Initial convergence to 1.0D-05 achieved.  Increase integral accuracy.
 SCF Done:  E(RHF) =  -1002.85398529     A.U. after   16 cycles
            NFock= 16  Conv=0.86D-08     -V/T= 2.0015

 **********************************************************************

            Population analysis using the SCF density.

 **********************************************************************

 Alpha  occ. eigenvalues --  -20.56608 -20.55164 -20.53836 -20.52852 -15.59869
 Alpha  occ. eigenvalues --  -15.58397 -15.56417 -11.37154 -11.36036 -11.35770
 Alpha  occ. eigenvalues --  -11.33990 -11.30246 -11.28432 -11.25061 -11.25028
 Alpha  occ. eigenvalues --  -11.24353 -11.24244 -11.24108 -11.23327 -11.22715
 Alpha  occ. eigenvalues --  -11.22135  -1.42570  -1.39169  -1.38180  -1.38081
 Alpha  occ. eigenvalues --   -1.25887  -1.24465  -1.23655  -1.14174  -1.08013
 Alpha  occ. eigenvalues --   -1.04806  -1.03345  -1.00748  -0.99889  -0.94755
 Alpha  occ. eigenvalues --   -0.87475  -0.85371  -0.82834  -0.80443  -0.77008
 Alpha  occ. eigenvalues --   -0.74549  -0.73303  -0.72019  -0.69893  -0.68904
 Alpha  occ. eigenvalues --   -0.67871  -0.67388  -0.66358  -0.64925  -0.64090
 Alpha  occ. eigenvalues --   -0.63037  -0.62200  -0.61985  -0.60769  -0.59805
 Alpha  occ. eigenvalues --   -0.59298  -0.58421  -0.58220  -0.57274  -0.56741
 Alpha  occ. eigenvalues --   -0.55901  -0.54306  -0.53145  -0.53069  -0.51282
 Alpha  occ. eigenvalues --   -0.50736  -0.50479  -0.49316  -0.46064  -0.44842
 Alpha  occ. eigenvalues --   -0.42808  -0.42537  -0.42230  -0.41058  -0.38931
 Alpha  occ. eigenvalues --   -0.34975  -0.28933
 Alpha virt. eigenvalues --    0.08917   0.13566   0.16007   0.18592   0.19031
 Alpha virt. eigenvalues --    0.21250   0.22122   0.22702   0.23702   0.24678
 Alpha virt. eigenvalues --    0.26255   0.27392   0.29329   0.29519   0.29689
 Alpha virt. eigenvalues --    0.30500   0.31143   0.32218   0.32648   0.33743
 Alpha virt. eigenvalues --    0.33934   0.34603   0.35498   0.38220   0.39049
 Alpha virt. eigenvalues --    0.39346   0.40427   0.41057   0.44055   0.45082
 Alpha virt. eigenvalues --    0.45229   0.47289   0.47931   0.50377   0.51038
 Alpha virt. eigenvalues --    0.51454   0.52640   0.55030   0.56568   0.57723
 Alpha virt. eigenvalues --    0.59451   0.61053   0.62689   0.69855   0.71145
 Alpha virt. eigenvalues --    0.71765   0.72873   0.73559   0.73973   0.74524
 Alpha virt. eigenvalues --    0.74972   0.76169   0.77133   0.78075   0.78521
 Alpha virt. eigenvalues --    0.79862   0.80538   0.80982   0.81945   0.82195
 Alpha virt. eigenvalues --    0.82585   0.83205   0.84553   0.85113   0.85569
 Alpha virt. eigenvalues --    0.87184   0.88799   0.88985   0.90202   0.92401
 Alpha virt. eigenvalues --    0.92465   0.92790   0.93725   0.95010   0.95431
 Alpha virt. eigenvalues --    0.96857   0.98607   0.99775   1.00691   1.00847
 Alpha virt. eigenvalues --    1.01256   1.03880   1.05571   1.07209   1.08902
 Alpha virt. eigenvalues --    1.09417   1.09566   1.10128   1.11025   1.11299
 Alpha virt. eigenvalues --    1.11657   1.12828   1.13623   1.14423   1.14762
 Alpha virt. eigenvalues --    1.16075   1.16469   1.17222   1.17588   1.18776
 Alpha virt. eigenvalues --    1.19187   1.19754   1.20124   1.20786   1.21224
 Alpha virt. eigenvalues --    1.21358   1.22152   1.22710   1.22973   1.24506
 Alpha virt. eigenvalues --    1.26599   1.28713   1.29488   1.30462   1.30825
 Alpha virt. eigenvalues --    1.33206   1.33907   1.34905   1.36139   1.36663
 Alpha virt. eigenvalues --    1.37863   1.41652   1.41917   1.43569   1.46366
 Alpha virt. eigenvalues --    1.47289   1.48937   1.49449   1.49672   1.54603
 Alpha virt. eigenvalues --    1.56234   1.58735   1.59629   1.60446   1.61865
 Alpha virt. eigenvalues --    1.65221   1.65781   1.66814   1.68380   1.69101
 Alpha virt. eigenvalues --    1.70358   1.70935   1.71392   1.73285   1.75548
 Alpha virt. eigenvalues --    1.75721   1.77659   1.79355   1.83274   1.83847
 Alpha virt. eigenvalues --    1.87616   1.89272   1.91358   1.92622   1.94622
 Alpha virt. eigenvalues --    1.95689   1.98786   1.99714   2.01633   2.03057
 Alpha virt. eigenvalues --    2.05457   2.05956   2.07157   2.07574   2.09592
 Alpha virt. eigenvalues --    2.09636   2.10416   2.11019   2.11850   2.12818
 Alpha virt. eigenvalues --    2.14099   2.16280   2.17840   2.18145   2.19306
 Alpha virt. eigenvalues --    2.20654   2.21914   2.22275   2.23970   2.24765
 Alpha virt. eigenvalues --    2.26610   2.27296   2.28074   2.28775   2.31509
 Alpha virt. eigenvalues --    2.32386   2.34198   2.35396   2.37096   2.37962
 Alpha virt. eigenvalues --    2.39328   2.40278   2.42621   2.45316   2.48071
 Alpha virt. eigenvalues --    2.49010   2.50880   2.51737   2.51974   2.54380
 Alpha virt. eigenvalues --    2.54777   2.57234   2.59799   2.60508   2.60993
 Alpha virt. eigenvalues --    2.62093   2.64010   2.65736   2.68962   2.70207
 Alpha virt. eigenvalues --    2.71581   2.74104   2.74142   2.75093   2.75668
 Alpha virt. eigenvalues --    2.78905   2.79565   2.81863   2.82348   2.84319
 Alpha virt. eigenvalues --    2.86500   2.90221   2.92288   2.93865   2.95189
 Alpha virt. eigenvalues --    2.98585   2.99526   3.01819   3.03016   3.04950
 Alpha virt. eigenvalues --    3.07462   3.08459   3.10510   3.13347   3.17709
 Alpha virt. eigenvalues --    3.18243   3.22418   3.23585   3.27166   3.29123
 Alpha virt. eigenvalues --    3.31457   3.34970   3.35947   3.37581   3.40533
 Alpha virt. eigenvalues --    3.41423   3.43866   3.53661   3.64621   3.64813
 Alpha virt. eigenvalues --    3.83384   4.31771   4.42288   4.42863   4.46553
 Alpha virt. eigenvalues --    4.48356   4.52224   4.52853   4.55464   4.56966
 Alpha virt. eigenvalues --    4.63148   4.63550   4.70507   4.77315   4.79644
 Alpha virt. eigenvalues --    4.80676   4.88068   4.88874   4.95483   5.09968
 Alpha virt. eigenvalues --    5.12520   5.19711
          Condensed to atoms (all electrons):
               1          2          3          4          5          6
     1  C    5.011093   0.529019  -0.036868  -0.039984  -0.051092   0.573499
     2  C    0.529019   4.377955   0.549785  -0.034651  -0.027204  -0.029749
     3  C   -0.036868   0.549785   5.081025   0.509313  -0.044000  -0.029772
     4  C   -0.039984  -0.034651   0.509313   4.895072   0.570650  -0.042450
     5  C   -0.051092  -0.027204  -0.044000   0.570650   4.948082   0.523257
     6  C    0.573499  -0.029749  -0.029772  -0.042450   0.523257   4.827710
     7  H    0.380098  -0.036210   0.002544   0.000265   0.002441  -0.025078
     8  H    0.000343   0.001486  -0.032902   0.380429  -0.026405   0.002837
     9  H    0.002436   0.000416   0.001505  -0.028612   0.385840  -0.029480
    10  H   -0.029236   0.001603   0.000478   0.002741  -0.028799   0.380287
    11  N   -0.073354   0.338750  -0.059782   0.003950   0.000163   0.003104
    12  H   -0.001155  -0.032089   0.002771  -0.000082   0.000004   0.000102
    13  H    0.002961  -0.011843  -0.006771  -0.000117   0.000014  -0.000097
    14  C    0.003904  -0.036196   0.404703  -0.039988   0.002648  -0.000352
    15  C    0.000000   0.003778  -0.102092  -0.003349  -0.000004  -0.000023
    16  H   -0.000003  -0.000177   0.000208  -0.001338  -0.000003   0.000001
    17  H   -0.000008  -0.000127   0.000881  -0.001886   0.000068   0.000002
    18  C    0.000000  -0.000065   0.003918   0.000283   0.000000   0.000000
    19  H    0.000000   0.000001  -0.000067  -0.000010   0.000000   0.000000
    20  C    0.000000   0.000001   0.000314  -0.000027   0.000000   0.000000
    21  N    0.000000   0.000000  -0.000037  -0.000010   0.000000   0.000000
    22  H    0.000000   0.000000   0.000001   0.000000   0.000000   0.000000
    23  O    0.000000   0.000002  -0.000024   0.000000   0.000000   0.000000
    24  O    0.000327  -0.000584  -0.065886   0.002775  -0.000041  -0.000008
    25  C    0.000000   0.000000  -0.000004   0.000000   0.000000   0.000000
    26  C    0.000000   0.000000   0.000002   0.000000   0.000000   0.000000
    27  O    0.000000   0.000000   0.000000   0.000000   0.000000   0.000000
    28  O    0.000000   0.000000  -0.000001   0.000000   0.000000   0.000000
    29  C    0.000000   0.000000   0.000000   0.000000   0.000000   0.000000
    30  H    0.000000   0.000000   0.000000   0.000000   0.000000   0.000000
    31  H    0.000000   0.000000   0.000000   0.000000   0.000000   0.000000
    32  H    0.000000   0.000000   0.000000   0.000000   0.000000   0.000000
    33  C    0.000000   0.000000   0.000000   0.000000   0.000000   0.000000
    34  H    0.000000   0.000000   0.000000   0.000000   0.000000   0.000000
    35  H    0.000000   0.000000   0.000000   0.000000   0.000000   0.000000
    36  H    0.000000   0.000000   0.000000   0.000000   0.000000   0.000000
    37  N    0.000000  -0.000001   0.000005   0.000000   0.000000   0.000000
    38  H    0.000000   0.000000   0.000001   0.000000   0.000000   0.000000
               7          8          9         10         11         12
     1  C    0.380098   0.000343   0.002436  -0.029236  -0.073354  -0.001155
     2  C   -0.036210   0.001486   0.000416   0.001603   0.338750  -0.032089
     3  C    0.002544  -0.032902   0.001505   0.000478  -0.059782   0.002771
     4  C    0.000265   0.380429  -0.028612   0.002741   0.003950  -0.000082
     5  C    0.002441  -0.026405   0.385840  -0.028799   0.000163   0.000004
     6  C   -0.025078   0.002837  -0.029480   0.380287   0.003104   0.000102
     7  H    0.477737   0.000011  -0.000117  -0.001956  -0.002652   0.004020
     8  H    0.000011   0.463315  -0.001559  -0.000128  -0.000065   0.000002
     9  H   -0.000117  -0.001559   0.469132  -0.001319   0.000004   0.000000
    10  H   -0.001956  -0.000128  -0.001319   0.464891  -0.000097  -0.000010
    11  N   -0.002652  -0.000065   0.000004  -0.000097   7.154701   0.334529
    12  H    0.004020   0.000002   0.000000  -0.000010   0.334529   0.320106
    13  H    0.000006  -0.000005   0.000000   0.000001   0.300431  -0.011712
    14  C   -0.000093  -0.003938  -0.000084   0.000007  -0.006625  -0.000031
    15  C    0.000001   0.001099   0.000002   0.000000  -0.000304   0.000009
    16  H    0.000000  -0.000793  -0.000001   0.000000   0.000006   0.000000
    17  H    0.000000  -0.000181  -0.000004   0.000000   0.000006   0.000000
    18  C    0.000000   0.000209   0.000000   0.000000   0.000009   0.000000
    19  H    0.000000  -0.000004   0.000000   0.000000   0.000000   0.000000
    20  C    0.000000  -0.000004   0.000000   0.000000   0.000001   0.000000
    21  N    0.000000   0.000000   0.000000   0.000000   0.000000   0.000000
    22  H    0.000000   0.000000   0.000000   0.000000   0.000000   0.000000
    23  O    0.000000  -0.000001   0.000000   0.000000   0.000000   0.000000
    24  O    0.000005   0.000068   0.000000   0.000000  -0.025892   0.000648
    25  C    0.000000  -0.000005   0.000000   0.000000   0.000000   0.000000
    26  C    0.000000   0.000000   0.000000   0.000000  -0.000002   0.000000
    27  O    0.000000  -0.000003   0.000000   0.000000   0.000000   0.000000
    28  O    0.000000   0.000000   0.000000   0.000000  -0.000001   0.000000
    29  C    0.000000   0.000000   0.000000   0.000000   0.000000   0.000000
    30  H    0.000000   0.000000   0.000000   0.000000   0.000000   0.000000
    31  H    0.000000   0.000000   0.000000   0.000000   0.000000   0.000000
    32  H    0.000000   0.000000   0.000000   0.000000   0.000000   0.000000
    33  C    0.000000   0.000000   0.000000   0.000000   0.000000   0.000000
    34  H    0.000000   0.000000   0.000000   0.000000   0.000000   0.000000
    35  H    0.000000   0.000000   0.000000   0.000000   0.000000   0.000000
    36  H    0.000000   0.000000   0.000000   0.000000   0.000000   0.000000
    37  N    0.000000   0.000000   0.000000   0.000000   0.000000   0.000000
    38  H    0.000000   0.000000   0.000000   0.000000   0.000000   0.000000
              13         14         15         16         17         18
     1  C    0.002961   0.003904   0.000000  -0.000003  -0.000008   0.000000
     2  C   -0.011843  -0.036196   0.003778  -0.000177  -0.000127  -0.000065
     3  C   -0.006771   0.404703  -0.102092   0.000208   0.000881   0.003918
     4  C   -0.000117  -0.039988  -0.003349  -0.001338  -0.001886   0.000283
     5  C    0.000014   0.002648  -0.000004  -0.000003   0.000068   0.000000
     6  C   -0.000097  -0.000352  -0.000023   0.000001   0.000002   0.000000
     7  H    0.000006  -0.000093   0.000001   0.000000   0.000000   0.000000
     8  H   -0.000005  -0.003938   0.001099  -0.000793  -0.000181   0.000209
     9  H    0.000000  -0.000084   0.000002  -0.000001  -0.000004   0.000000
    10  H    0.000001   0.000007   0.000000   0.000000   0.000000   0.000000
    11  N    0.300431  -0.006625  -0.000304   0.000006   0.000006   0.000009
    12  H   -0.011712  -0.000031   0.000009   0.000000   0.000000   0.000000
    13  H    0.245440  -0.001052   0.000569  -0.000016  -0.000013  -0.000011
    14  C   -0.001052   4.319907   0.349854  -0.025045  -0.024022  -0.044178
    15  C    0.000569   0.349854   5.318650   0.376942   0.385472   0.342289
    16  H   -0.000016  -0.025045   0.376942   0.479582  -0.021006  -0.031227
    17  H   -0.000013  -0.024022   0.385472  -0.021006   0.465639  -0.035139
    18  C   -0.000011  -0.044178   0.342289  -0.031227  -0.035139   5.035905
    19  H   -0.000002  -0.000032  -0.031443   0.003078  -0.003162   0.406430
    20  C    0.000003   0.002436  -0.062477  -0.004864   0.004449   0.363569
    21  N    0.000000   0.002822  -0.062378   0.000398  -0.003982   0.174346
    22  H    0.000000  -0.000079   0.002314   0.000998  -0.000146  -0.024057
    23  O    0.000000  -0.000126   0.004001   0.004926  -0.000045  -0.076990
    24  O    0.027356   0.500942  -0.091387   0.000802   0.001632   0.004660
    25  C    0.000000   0.000019  -0.003280   0.000376   0.001667  -0.026249
    26  C    0.000024   0.000021  -0.000076  -0.000004   0.000001   0.003572
    27  O    0.000000  -0.000043  -0.002547  -0.000016   0.003687   0.006137
    28  O    0.000012   0.000066   0.000009   0.000001   0.000000  -0.000122
    29  C    0.000000   0.000005   0.000006   0.000000   0.000000  -0.000347
    30  H    0.000000   0.000000   0.000000   0.000000   0.000000   0.000007
    31  H    0.000000   0.000000   0.000000   0.000000   0.000000   0.000003
    32  H    0.000000  -0.000001   0.000000   0.000000   0.000000  -0.000004
    33  C    0.000000   0.000000  -0.000282  -0.000013   0.000091   0.004618
    34  H    0.000000   0.000000   0.000029   0.000001  -0.000024  -0.000087
    35  H    0.000000   0.000000  -0.000001   0.000000   0.000001  -0.000214
    36  H    0.000000   0.000000   0.000008   0.000000  -0.000001  -0.000081
    37  N   -0.000005  -0.000222   0.004452   0.000245  -0.000096  -0.118803
    38  H    0.000000   0.000001   0.000004   0.000000   0.000001  -0.000986
              19         20         21         22         23         24
     1  C    0.000000   0.000000   0.000000   0.000000   0.000000   0.000327
     2  C    0.000001   0.000001   0.000000   0.000000   0.000002  -0.000584
     3  C   -0.000067   0.000314  -0.000037   0.000001  -0.000024  -0.065886
     4  C   -0.000010  -0.000027  -0.000010   0.000000   0.000000   0.002775
     5  C    0.000000   0.000000   0.000000   0.000000   0.000000  -0.000041
     6  C    0.000000   0.000000   0.000000   0.000000   0.000000  -0.000008
     7  H    0.000000   0.000000   0.000000   0.000000   0.000000   0.000005
     8  H   -0.000004  -0.000004   0.000000   0.000000  -0.000001   0.000068
     9  H    0.000000   0.000000   0.000000   0.000000   0.000000   0.000000
    10  H    0.000000   0.000000   0.000000   0.000000   0.000000   0.000000
    11  N    0.000000   0.000001   0.000000   0.000000   0.000000  -0.025892
    12  H    0.000000   0.000000   0.000000   0.000000   0.000000   0.000648
    13  H   -0.000002   0.000003   0.000000   0.000000   0.000000   0.027356
    14  C   -0.000032   0.002436   0.002822  -0.000079  -0.000126   0.500942
    15  C   -0.031443  -0.062477  -0.062378   0.002314   0.004001  -0.091387
    16  H    0.003078  -0.004864   0.000398   0.000998   0.004926   0.000802
    17  H   -0.003162   0.004449  -0.003982  -0.000146  -0.000045   0.001632
    18  C    0.406430   0.363569   0.174346  -0.024057  -0.076990   0.004660
    19  H    0.414034  -0.041299  -0.035668   0.002294   0.002333   0.001996
    20  C   -0.041299   4.230074  -0.044316  -0.002944   0.580660   0.006049
    21  N   -0.035668  -0.044316   7.445270   0.316193  -0.001582   0.000399
    22  H    0.002294  -0.002944   0.316193   0.307655   0.007842   0.000010
    23  O    0.002333   0.580660  -0.001582   0.007842   8.118449  -0.002387
    24  O    0.001996   0.006049   0.000399   0.000010  -0.002387   8.291928
    25  C    0.000094   0.003948   0.252095  -0.014916   0.000153  -0.000002
    26  C    0.000023  -0.016465  -0.000055   0.000003   0.001165   0.001866
    27  O    0.007973   0.000604  -0.105929   0.002128  -0.000002   0.000001
    28  O    0.000006   0.009651   0.000000   0.000000  -0.002711  -0.000091
    29  C   -0.000026   0.003759   0.000004   0.000000  -0.000041  -0.000055
    30  H   -0.000004  -0.000370  -0.000001   0.000000   0.000014  -0.000001
    31  H    0.000000  -0.000008   0.000000   0.000000   0.000005  -0.000001
    32  H    0.000016  -0.000093   0.000000   0.000000  -0.000001   0.000027
    33  C    0.000376  -0.000034  -0.118610  -0.000516  -0.000008   0.000000
    34  H   -0.000009  -0.000016   0.004076   0.000799  -0.000001   0.000000
    35  H   -0.000016   0.000004   0.000913   0.000203   0.000000   0.000000
    36  H   -0.000007   0.000000   0.004239  -0.000030   0.000000   0.000000
    37  N    0.006532   0.215299   0.004715   0.000882  -0.105896  -0.003331
    38  H    0.000002  -0.008914   0.000311  -0.000048   0.000505   0.000251
              25         26         27         28         29         30
     1  C    0.000000   0.000000   0.000000   0.000000   0.000000   0.000000
     2  C    0.000000   0.000000   0.000000   0.000000   0.000000   0.000000
     3  C   -0.000004   0.000002   0.000000  -0.000001   0.000000   0.000000
     4  C    0.000000   0.000000   0.000000   0.000000   0.000000   0.000000
     5  C    0.000000   0.000000   0.000000   0.000000   0.000000   0.000000
     6  C    0.000000   0.000000   0.000000   0.000000   0.000000   0.000000
     7  H    0.000000   0.000000   0.000000   0.000000   0.000000   0.000000
     8  H   -0.000005   0.000000  -0.000003   0.000000   0.000000   0.000000
     9  H    0.000000   0.000000   0.000000   0.000000   0.000000   0.000000
    10  H    0.000000   0.000000   0.000000   0.000000   0.000000   0.000000
    11  N    0.000000  -0.000002   0.000000  -0.000001   0.000000   0.000000
    12  H    0.000000   0.000000   0.000000   0.000000   0.000000   0.000000
    13  H    0.000000   0.000024   0.000000   0.000012   0.000000   0.000000
    14  C    0.000019   0.000021  -0.000043   0.000066   0.000005   0.000000
    15  C   -0.003280  -0.000076  -0.002547   0.000009   0.000006   0.000000
    16  H    0.000376  -0.000004  -0.000016   0.000001   0.000000   0.000000
    17  H    0.001667   0.000001   0.003687   0.000000   0.000000   0.000000
    18  C   -0.026249   0.003572   0.006137  -0.000122  -0.000347   0.000007
    19  H    0.000094   0.000023   0.007973   0.000006  -0.000026  -0.000004
    20  C    0.003948  -0.016465   0.000604   0.009651   0.003759  -0.000370
    21  N    0.252095  -0.000055  -0.105929   0.000000   0.000004  -0.000001
    22  H   -0.014916   0.000003   0.002128   0.000000   0.000000   0.000000
    23  O    0.000153   0.001165  -0.000002  -0.002711  -0.000041   0.000014
    24  O   -0.000002   0.001866   0.000001  -0.000091  -0.000055  -0.000001
    25  C    4.164127   0.000000   0.596959   0.000000   0.000000   0.000000
    26  C    0.000000   4.277555   0.000000   0.628642   0.377418  -0.032477
    27  O    0.596959   0.000000   8.180916   0.000000   0.000000   0.000000
    28  O    0.000000   0.628642   0.000000   8.058459  -0.057247   0.001440
    29  C    0.000000   0.377418   0.000000  -0.057247   5.290582   0.370243
    30  H    0.000000  -0.032477   0.000000   0.001440   0.370243   0.517131
    31  H    0.000000  -0.033760   0.000000   0.002356   0.384499  -0.016281
    32  H    0.000000  -0.033195   0.000000   0.000504   0.380411  -0.025776
    33  C    0.370603   0.000000  -0.067935   0.000000   0.000000   0.000000
    34  H   -0.035306   0.000000   0.001847   0.000000   0.000000   0.000000
    35  H   -0.027878   0.000000   0.000448   0.000000   0.000000   0.000000
    36  H   -0.032731   0.000000   0.003336   0.000000   0.000000   0.000000
    37  N   -0.000101   0.196284  -0.000025  -0.109240  -0.141441  -0.002411
    38  H    0.000013  -0.047259  -0.000002   0.003266  -0.001798   0.006301
              31         32         33         34         35         36
     1  C    0.000000   0.000000   0.000000   0.000000   0.000000   0.000000
     2  C    0.000000   0.000000   0.000000   0.000000   0.000000   0.000000
     3  C    0.000000   0.000000   0.000000   0.000000   0.000000   0.000000
     4  C    0.000000   0.000000   0.000000   0.000000   0.000000   0.000000
     5  C    0.000000   0.000000   0.000000   0.000000   0.000000   0.000000
     6  C    0.000000   0.000000   0.000000   0.000000   0.000000   0.000000
     7  H    0.000000   0.000000   0.000000   0.000000   0.000000   0.000000
     8  H    0.000000   0.000000   0.000000   0.000000   0.000000   0.000000
     9  H    0.000000   0.000000   0.000000   0.000000   0.000000   0.000000
    10  H    0.000000   0.000000   0.000000   0.000000   0.000000   0.000000
    11  N    0.000000   0.000000   0.000000   0.000000   0.000000   0.000000
    12  H    0.000000   0.000000   0.000000   0.000000   0.000000   0.000000
    13  H    0.000000   0.000000   0.000000   0.000000   0.000000   0.000000
    14  C    0.000000  -0.000001   0.000000   0.000000   0.000000   0.000000
    15  C    0.000000   0.000000  -0.000282   0.000029  -0.000001   0.000008
    16  H    0.000000   0.000000  -0.000013   0.000001   0.000000   0.000000
    17  H    0.000000   0.000000   0.000091  -0.000024   0.000001  -0.000001
    18  C    0.000003  -0.000004   0.004618  -0.000087  -0.000214  -0.000081
    19  H    0.000000   0.000016   0.000376  -0.000009  -0.000016  -0.000007
    20  C   -0.000008  -0.000093  -0.000034  -0.000016   0.000004   0.000000
    21  N    0.000000   0.000000  -0.118610   0.004076   0.000913   0.004239
    22  H    0.000000   0.000000  -0.000516   0.000799   0.000203  -0.000030
    23  O    0.000005  -0.000001  -0.000008  -0.000001   0.000000   0.000000
    24  O   -0.000001   0.000027   0.000000   0.000000   0.000000   0.000000
    25  C    0.000000   0.000000   0.370603  -0.035306  -0.027878  -0.032731
    26  C   -0.033760  -0.033195   0.000000   0.000000   0.000000   0.000000
    27  O    0.000000   0.000000  -0.067935   0.001847   0.000448   0.003336
    28  O    0.002356   0.000504   0.000000   0.000000   0.000000   0.000000
    29  C    0.384499   0.380411   0.000000   0.000000   0.000000   0.000000
    30  H   -0.016281  -0.025776   0.000000   0.000000   0.000000   0.000000
    31  H    0.447508  -0.015043   0.000000   0.000000   0.000000   0.000000
    32  H   -0.015043   0.466146   0.000000   0.000000   0.000000   0.000000
    33  C    0.000000   0.000000   5.255481   0.376162   0.376064   0.385340
    34  H    0.000000   0.000000   0.376162   0.515377  -0.024489  -0.020391
    35  H    0.000000   0.000000   0.376064  -0.024489   0.492330  -0.017349
    36  H    0.000000   0.000000   0.385340  -0.020391  -0.017349   0.456675
    37  N    0.005758   0.002806  -0.000002   0.000000   0.000000   0.000000
    38  H   -0.000079  -0.001537  -0.000001   0.000000   0.000000   0.000000
              37         38
     1  C    0.000000   0.000000
     2  C   -0.000001   0.000000
     3  C    0.000005   0.000001
     4  C    0.000000   0.000000
     5  C    0.000000   0.000000
     6  C    0.000000   0.000000
     7  H    0.000000   0.000000
     8  H    0.000000   0.000000
     9  H    0.000000   0.000000
    10  H    0.000000   0.000000
    11  N    0.000000   0.000000
    12  H    0.000000   0.000000
    13  H   -0.000005   0.000000
    14  C   -0.000222   0.000001
    15  C    0.004452   0.000004
    16  H    0.000245   0.000000
    17  H   -0.000096   0.000001
    18  C   -0.118803  -0.000986
    19  H    0.006532   0.000002
    20  C    0.215299  -0.008914
    21  N    0.004715   0.000311
    22  H    0.000882  -0.000048
    23  O   -0.105896   0.000505
    24  O   -0.003331   0.000251
    25  C   -0.000101   0.000013
    26  C    0.196284  -0.047259
    27  O   -0.000025  -0.000002
    28  O   -0.109240   0.003266
    29  C   -0.141441  -0.001798
    30  H   -0.002411   0.006301
    31  H    0.005758  -0.000079
    32  H    0.002806  -0.001537
    33  C   -0.000002  -0.000001
    34  H    0.000000   0.000000
    35  H    0.000000   0.000000
    36  H    0.000000   0.000000
    37  N    7.553058   0.297780
    38  H    0.297780   0.365250
 Mulliken charges:
               1
     1  C   -0.271981
     2  C    0.406098
     3  C   -0.179248
     4  C   -0.172974
     5  C   -0.255618
     6  C   -0.153791
     7  H    0.198977
     8  H    0.216194
     9  H    0.201842
    10  H    0.211536
    11  N   -0.966878
    12  H    0.382889
    13  H    0.454826
    14  C    0.594773
    15  C   -0.429847
    16  H    0.216941
    17  H    0.226245
    18  C    0.012605
    19  H    0.266561
    20  C    0.761009
    21  N   -0.833216
    22  H    0.401415
    23  O   -0.530241
    24  O   -0.652076
    25  C    0.750418
    26  C    0.676718
    27  O   -0.627535
    28  O   -0.535000
    29  C   -0.605974
    30  H    0.182184
    31  H    0.225043
    32  H    0.225739
    33  C   -0.581336
    34  H    0.182032
    35  H    0.199983
    36  H    0.220990
    37  N   -0.806242
    38  H    0.386938
 Sum of Mulliken charges =   0.00000
 Mulliken charges with hydrogens summed into heavy atoms:
               1
     1  C   -0.073004
     2  C    0.406098
     3  C   -0.179248
     4  C    0.043220
     5  C   -0.053776
     6  C    0.057746
    11  N   -0.129163
    14  C    0.594773
    15  C    0.013339
    18  C    0.279166
    20  C    0.761009
    21  N   -0.431801
    23  O   -0.530241
    24  O   -0.652076
    25  C    0.750418
    26  C    0.676718
    27  O   -0.627535
    28  O   -0.535000
    29  C    0.026991
    33  C    0.021669
    37  N   -0.419305
 DipInt: DoE/N= T F RetVal/Mat= T F Init=T NMatP=  1 IDeriv=0 Min/MaxMlt=  0  4
 Entering OneElI...
 OneElI was handed    33240992 working-precision words.
 Multipole integrals L=0 to 4 MinM= 0 MaxM= 0.
 Requested accuracy = 0.1000D-12
 PrtBox:  NBox=     1 Levels=  1 BoxLen=   35.86 SMaxX=       21.09
          Shift=            4.168179            4.273201            3.372467
 Box      1 Number                   0 centers from      1 to    118:
 ShPair: Thresh= 1.00D-13 NBox=     1 BxSize= 3.59D+01 RnKept= 2.14D+01
         NSMCal=                 7021 NSMKep=                5155
 PrsmSu:  NPrtUS=   1 ThrOK=F IAlg=1 NPAlg=1 LenDen=           0.
 Prism:   IPart=     0 DynPar=F LinDyn=F Incr=          51.
 PRISM was handed    32786387 working-precision words and  5155 shell-pairs
 IPart=  0 NShTot=        5155 NBatch=          62 AvBLen=        83.1
 PrSmSu:  NxtVal=             52.
 Electronic moments (au):
       -154.00000000       -461.42392545        -33.07740434      -1328.80138363
      -3788.95478378       -635.12817382     -15986.26965093        482.02829583
      -4491.19255503       -444.21994005     -29301.80947142       -396.20294976
    -203886.06441408      -2477.55266216       4459.94029861     -41819.94449559
     -53051.58528948      -6061.62717535      -7485.95410548       6264.07265480
    -276496.79074369      -9546.08647014   -2719742.00433386      47836.48955057
    -351325.62754256       6231.62065430      -5354.55675607    -637264.51003842
     -83420.22430596     -21543.98339441    -527016.91540012     -93379.62204511
      57211.14486169     -29020.13137592      82039.63161659
 Electronic spatial extent (au):  <R**2>=          20410.3526
 DipInt: DoE/N= F T RetVal/Mat= T F Init=T NMatP=  1 IDeriv=0 Min/MaxMlt=  0  4
 Nuclear    moments (au):
        154.00000000        462.04151039         32.64265961       1329.03419903
       3715.18299233        524.09770045      15924.89898777       -472.43122705
       4502.22296779        438.17657520      28630.47005014        333.10719805
     202315.05653612       2140.71568304      -4416.98903040      41233.04397834
      52958.54809619       5969.15072083       6507.61624227      -6153.97032093
     265267.94615763       7158.07436485    2679718.30202449     -46590.94900211
     345515.21462019      -5165.20529710       4493.76323331     632190.49919252
      81872.54740291      18513.18203654     518217.39657936      81309.13687961
     -56804.60255886      25741.52876449     -80532.42024781
 Total      moments (au):
          0.00000000          0.61758494         -0.43474473          0.23281540
        -73.77179145       -111.03047337        -61.37066316          9.59706878
         11.03041276         -6.04336485       -671.33942127        -63.09575171
      -1571.00787796       -336.83697912         42.95126821       -586.90051725
        -93.03719328        -92.47645452       -978.33786321        110.10233386
     -11228.84458606      -2388.01210529     -40023.70230937       1245.54054847
      -5810.41292236       1066.41535721       -860.79352276      -5074.01084590
      -1547.67690305      -3030.80135787      -8799.51882076     -12070.48516550
        406.54230283      -3278.60261142       1507.21136878
 Traceless Quadrup. (au):
          8.28585121        -28.97283071         20.68697950          9.59706878
         11.03041276         -6.04336485
 Charge=              0.0000 electrons
 Dipole moment (field-independent basis, Debye):
    X=              1.5697    Y=             -1.1050    Z=              0.5918  Tot=              2.0088
 Quadrupole moment (field-independent basis, Debye-Ang):
   XX=            -99.2256   YY=           -149.3398   ZZ=            -82.5456
   XY=             12.9084   XZ=             14.8363   YZ=             -8.1285
 Traceless Quadrupole moment (field-independent basis, Debye-Ang):
   XX=             11.1448   YY=            -38.9694   ZZ=             27.8247
   XY=             12.9084   XZ=             14.8363   YZ=             -8.1285
 Octapole moment (field-independent basis, Debye-Ang**2):
  XXX=           -477.8335  YYY=            -44.9091  ZZZ=          -1118.1828  XYY=           -239.7476
  XXY=             30.5711  XXZ=           -417.7332  XZZ=            -66.2203  YZZ=            -65.8212
  YYZ=           -696.3432  XYZ=             78.3666
 Hexadecapole moment (field-independent basis, Debye-Ang**3):
 XXXX=          -4229.3210 YYYY=           -899.4398 ZZZZ=         -15074.8445 XXXY=            469.1303
 XXXZ=          -2188.4800 YYYX=            401.6631 YYYZ=           -324.2161 ZZZX=          -1911.1157
 ZZZY=           -582.9293 XXYY=          -1141.5450 XXZZ=          -3314.3205 YYZZ=          -4546.3232
 XXYZ=            153.1233 YYXZ=          -1234.8789 ZZXY=            567.6880
 N-N= 1.666497531230D+03 E-N=-5.683577896282D+03  KE= 1.001360359305D+03
 Entering OneElI...
 OneElI was handed    33300768 working-precision words.
 Calculate electrostatic properties
    NBasis =   349  MinDer = 0  MaxDer = 0
    NGrid  =    38  NMatD  =   1
 Requested accuracy = 0.1000D-12
 PrtBox:  NBox=     1 Levels=  1 BoxLen=   29.89 SMaxX=       21.09
          Shift=            4.168179            4.273201            3.372467
 Box      1 Number                   0 centers from      1 to    118:
 ShPair: Thresh= 1.00D-13 NBox=     1 BxSize= 2.99D+01 RnKept= 1.80D+01
         NSMCal=                 7021 NSMKep=                4470
 PrsmSu:  NPrtUS=   1 ThrOK=F IAlg=1 NPAlg=1 LenDen=           0.
 Prism:   IPart=     0 DynPar=F LinDyn=F Incr=         512.
 PRISM was handed    32893619 working-precision words and  4470 shell-pairs
 IPart=  0 NShTot=      169860 NBatch=        4470 AvBLen=        38.0
 PrSmSu:  NxtVal=            513.
 --------------------------------------------------------
       Center         ----      EFG at Nuclei      ----
                      3XX-RR        3YY-RR        3ZZ-RR
 --------------------------------------------------------
     1   Atom        0.100638     -0.153763      0.053126
     2   Atom        0.163638     -0.482082      0.318445
     3   Atom        0.044968     -0.043295     -0.001673
     4   Atom        0.172426     -0.437933      0.265506
     5   Atom        0.079066     -0.192794      0.113728
     6   Atom        0.269401     -0.461555      0.192154
     7   Atom       -0.226788      0.187673      0.039115
     8   Atom       -0.224904      0.177745      0.047159
     9   Atom       -0.205201      0.186200      0.019001
    10   Atom        0.157134      0.172950     -0.330084
    11   Atom       -0.641664      0.984989     -0.343324
    12   Atom       -0.286472      0.274500      0.011972
    13   Atom        0.169657      0.252547     -0.422204
    14   Atom        0.301986     -0.658723      0.356737
    15   Atom        0.011886      0.048434     -0.060319
    16   Atom        0.061039     -0.189769      0.128730
    17   Atom       -0.008056     -0.085712      0.093767
    18   Atom       -0.206759      0.183024      0.023735
    19   Atom        0.078713     -0.208434      0.129721
    20   Atom       -0.101335      0.370182     -0.268846
    21   Atom       -0.297712     -0.437632      0.735343
    22   Atom        0.111902     -0.326953      0.215051
    23   Atom        0.482217     -0.467898     -0.014319
    24   Atom        0.111016     -1.015519      0.904503
    25   Atom        0.130114      0.233021     -0.363135
    26   Atom        0.009055      0.088178     -0.097233
    27   Atom        1.005365     -0.573799     -0.431567
    28   Atom        1.111988     -0.861833     -0.250155
    29   Atom        0.008784      0.029177     -0.037961
    30   Atom        0.001675      0.168397     -0.170072
    31   Atom       -0.213804      0.076305      0.137499
    32   Atom        0.150101     -0.246137      0.096036
    33   Atom       -0.048887      0.050168     -0.001281
    34   Atom        0.050308     -0.155132      0.104824
    35   Atom        0.137565      0.155643     -0.293208
    36   Atom       -0.010579     -0.144950      0.155529
    37   Atom       -0.414500      0.829595     -0.415095
    38   Atom        0.146244      0.227588     -0.373832
 --------------------------------------------------------
                        XY            XZ            YZ
 --------------------------------------------------------
     1   Atom        0.000735     -0.042899      0.000189
     2   Atom       -0.002724      0.108777      0.000932
     3   Atom       -0.000702     -0.036184     -0.000020
     4   Atom        0.001263     -0.014086     -0.000680
     5   Atom        0.000835      0.009619      0.000006
     6   Atom        0.002319     -0.004669      0.000093
     7   Atom       -0.000607     -0.200882     -0.000392
     8   Atom       -0.001780     -0.201967     -0.000433
     9   Atom       -0.001606      0.219027      0.000897
    10   Atom       -0.000049     -0.016909      0.000057
    11   Atom        0.021231      0.044744     -0.004694
    12   Atom        0.013560     -0.288190      0.007498
    13   Atom        0.001129      0.039902     -0.010667
    14   Atom        0.017433      0.034673      0.005548
    15   Atom       -0.005220     -0.024746      0.010637
    16   Atom       -0.186075      0.036145      0.081539
    17   Atom        0.205451      0.090047     -0.116028
    18   Atom        0.051892     -0.153544     -0.052081
    19   Atom       -0.170161      0.037678      0.087829
    20   Atom       -0.082957     -0.367130      0.066115
    21   Atom        0.051393     -0.581361     -0.113037
    22   Atom       -0.195385     -0.082004     -0.136283
    23   Atom       -0.479146     -1.579390      0.295200
    24   Atom        0.020661      1.276248      0.015502
    25   Atom        0.050699      0.358671      0.141336
    26   Atom       -0.121808     -0.221880     -0.391799
    27   Atom       -0.832954      0.761852     -0.431559
    28   Atom        0.014415     -1.259567     -0.261251
    29   Atom       -0.041466      0.000283      0.037961
    30   Atom        0.013647     -0.211338      0.035316
    31   Atom        0.178739      0.095256     -0.041116
    32   Atom       -0.065422     -0.020473     -0.153893
    33   Atom       -0.026808     -0.033275      0.009442
    34   Atom       -0.179619      0.070941      0.137633
    35   Atom        0.010165      0.077303     -0.061986
    36   Atom        0.227874      0.030307     -0.046920
    37   Atom        0.219862      0.210462      0.409690
    38   Atom        0.037056     -0.070961      0.144023
 --------------------------------------------------------


 ---------------------------------------------------------------------------------
              Nuclear Quadrupole Coupling Constant in Principal Axis System
 ---------------------------------------------------------------------------------

       Atom             a.u.   MegaHertz   Gauss  10(-4) cm-1        Axes

              Baa    -0.6485     3.115     1.111     1.039  0.9893 -0.0133 -0.1452
    11 N(14)  Bbb    -0.3368     1.617     0.577     0.539  0.1453  0.0012  0.9894
              Bcc     0.9853    -4.732    -1.688    -1.578  0.0130  0.9999 -0.0031
 
              Baa    -0.5589     2.684     0.958     0.895  0.9123 -0.0050  0.4094
    21 N(14)  Bbb    -0.4483     2.153     0.768     0.718 -0.0305  0.9963  0.0802
              Bcc     1.0072    -4.837    -1.726    -1.613 -0.4083 -0.0856  0.9088
 
              Baa    -0.6430     3.088     1.102     1.030 -0.6015 -0.1295  0.7883
    37 N(14)  Bbb    -0.3616     1.736     0.620     0.579  0.7762 -0.3284  0.5383
              Bcc     1.0046    -4.825    -1.722    -1.609  0.1892  0.9356  0.2980
 

 ---------------------------------------------------------------------------------

 No NMR shielding tensors so no spin-rotation constants.
 Leave Link  601 at Tue Oct 18 16:50:19 2016, MaxMem=    33554432 cpu:         0.6
 FitSet:  NAtFit=    38 NAtPot=    38 NAtFrz=     0 MDM=    42 TotChg=   0.00000
 Merz-Kollman atomic radii used.
 Atom Element Radius
    1     6    1.50
    2     6    1.50
    3     6    1.50
    4     6    1.50
    5     6    1.50
    6     6    1.50
    7     1    1.20
    8     1    1.20
    9     1    1.20
   10     1    1.20
   11     7    1.50
   12     1    1.20
   13     1    1.20
   14     6    1.50
   15     6    1.50
   16     1    1.20
   17     1    1.20
   18     6    1.50
   19     1    1.20
   20     6    1.50
   21     7    1.50
   22     1    1.20
   23     8    1.40
   24     8    1.40
   25     6    1.50
   26     6    1.50
   27     8    1.40
   28     8    1.40
   29     6    1.50
   30     1    1.20
   31     1    1.20
   32     1    1.20
   33     6    1.50
   34     1    1.20
   35     1    1.20
   36     1    1.20
   37     7    1.50
   38     1    1.20
 Generate VDW surfaces: Layer= 4 Dens= 6 Start= 1.400 Inc= 0.200

 **********************************************************************

            Electrostatic Properties Using The SCF Density

 **********************************************************************

       Atomic Center    1 is at   0.000000  0.000000  0.000000
       Atomic Center    2 is at   0.000000  0.000000  1.410989
       Atomic Center    3 is at   1.247489  0.000000  2.082400
       Atomic Center    4 is at   2.425330  0.005860  1.312650
       Atomic Center    5 is at   2.408048  0.007093 -0.058765
       Atomic Center    6 is at   1.170990  0.003110 -0.711896
       Atomic Center    7 is at  -0.943259 -0.001468 -0.512024
       Atomic Center    8 is at   3.373782  0.010324  1.810511
       Atomic Center    9 is at   3.321621  0.010755 -0.618164
       Atomic Center   10 is at   1.134243  0.003257 -1.784633
       Atomic Center   11 is at  -1.189133  0.001429  2.064152
       Atomic Center   12 is at  -2.035754  0.022584  1.552124
       Atomic Center   13 is at  -1.214679  0.017421  3.055402
       Atomic Center   14 is at   1.322554  0.005453  3.543350
       Atomic Center   15 is at   2.662934  0.046112  4.243928
       Atomic Center   16 is at   3.151960  0.990753  4.030967
       Atomic Center   17 is at   3.306098 -0.747042  3.885538
       Atomic Center   18 is at   2.530163 -0.125763  5.763606
       Atomic Center   19 is at   2.099687 -1.083044  5.994388
       Atomic Center   20 is at   1.681148  0.965263  6.377606
       Atomic Center   21 is at   3.839856 -0.042532  6.398865
       Atomic Center   22 is at   4.185168  0.860856  6.627595
       Atomic Center   23 is at   1.939121  2.137169  6.276458
       Atomic Center   24 is at   0.315103 -0.007603  4.261579
       Atomic Center   25 is at   4.608056 -1.141573  6.616777
       Atomic Center   26 is at  -0.537123  1.058009  7.461190
       Atomic Center   27 is at   4.246458 -2.261281  6.264721
       Atomic Center   28 is at  -0.928520  2.060100  6.933824
       Atomic Center   29 is at  -1.256858  0.235601  8.474677
       Atomic Center   30 is at  -0.660212  0.153212  9.373345
       Atomic Center   31 is at  -2.205705  0.693387  8.702457
       Atomic Center   32 is at  -1.411298 -0.763112  8.088487
       Atomic Center   33 is at   5.910298 -0.903686  7.330154
       Atomic Center   34 is at   6.419023 -0.024095  6.956031
       Atomic Center   35 is at   5.726656 -0.762728  8.389437
       Atomic Center   36 is at   6.543539 -1.766841  7.202139
       Atomic Center   37 is at   0.684427  0.471111  7.168251
       Atomic Center   38 is at   0.749447  0.289539  8.149477
      ESP Fit Center   39 is at   0.715327  1.931440  0.409690
      ESP Fit Center   40 is at   0.311888  2.035898  0.409690
      ESP Fit Center   41 is at  -0.104320  2.057006  0.409690
      ESP Fit Center   42 is at  -0.516256  1.993899  0.409690
      ESP Fit Center   43 is at  -0.907057  1.849162  0.409690
      ESP Fit Center   44 is at  -1.260724  1.628721  0.409690
      ESP Fit Center   45 is at  -1.562775  1.341599  0.409690
      ESP Fit Center   46 is at  -1.562775 -1.341599  0.409690
      ESP Fit Center   47 is at  -1.260724 -1.628721  0.409690
      ESP Fit Center   48 is at  -0.907057 -1.849162  0.409690
      ESP Fit Center   49 is at  -0.516256 -1.993899  0.409690
      ESP Fit Center   50 is at  -0.104320 -2.057006  0.409690
      ESP Fit Center   51 is at   0.311888 -2.035898  0.409690
      ESP Fit Center   52 is at   0.715327 -1.931440  0.409690
      ESP Fit Center   53 is at   0.409690  2.059649  0.000000
      ESP Fit Center   54 is at   0.000000  2.100000  0.000000
      ESP Fit Center   55 is at  -0.409690  2.059649  0.000000
      ESP Fit Center   56 is at  -0.803635  1.940147  0.000000
      ESP Fit Center   57 is at  -1.166697  1.746086  0.000000
      ESP Fit Center   58 is at  -1.166697 -1.746086  0.000000
      ESP Fit Center   59 is at  -0.803635 -1.940147  0.000000
      ESP Fit Center   60 is at  -0.409690 -2.059649  0.000000
      ESP Fit Center   61 is at   0.000000 -2.100000  0.000000
      ESP Fit Center   62 is at   0.409690 -2.059649  0.000000
      ESP Fit Center   63 is at   0.803635 -1.940147  0.000000
      ESP Fit Center   64 is at   0.311888  2.035898 -0.409690
      ESP Fit Center   65 is at  -0.104320  2.057006 -0.409690
      ESP Fit Center   66 is at  -0.516256  1.993899 -0.409690
      ESP Fit Center   67 is at  -0.907057  1.849162 -0.409690
      ESP Fit Center   68 is at  -0.907057 -1.849162 -0.409690
      ESP Fit Center   69 is at  -0.516256 -1.993899 -0.409690
      ESP Fit Center   70 is at  -0.104320 -2.057006 -0.409690
      ESP Fit Center   71 is at   0.311888 -2.035898 -0.409690
      ESP Fit Center   72 is at   0.105037  1.937302 -0.803635
      ESP Fit Center   73 is at  -0.313881  1.914589 -0.803635
      ESP Fit Center   74 is at  -0.718122  1.802351 -0.803635
      ESP Fit Center   75 is at  -0.718122 -1.802351 -0.803635
      ESP Fit Center   76 is at  -0.313881 -1.914589 -0.803635
      ESP Fit Center   77 is at   0.105037 -1.937302 -0.803635
      ESP Fit Center   78 is at  -0.210467  1.733355 -1.166697
      ESP Fit Center   79 is at  -0.619171  1.632619 -1.166697
      ESP Fit Center   80 is at  -0.619171 -1.632619 -1.166697
      ESP Fit Center   81 is at  -0.210467 -1.733355 -1.166697
      ESP Fit Center   82 is at  -0.211327  1.469810 -1.484924
      ESP Fit Center   83 is at  -0.616860  1.350735 -1.484924
      ESP Fit Center   84 is at  -0.616860 -1.350735 -1.484924
      ESP Fit Center   85 is at  -0.211327 -1.469810 -1.484924
      ESP Fit Center   86 is at  -0.319282  1.122160 -1.746086
      ESP Fit Center   87 is at  -0.319282 -1.122160 -1.746086
      ESP Fit Center   88 is at   0.105037  1.937302  2.214625
      ESP Fit Center   89 is at  -0.313881  1.914589  2.214625
      ESP Fit Center   90 is at  -0.313881 -1.914589  2.214625
      ESP Fit Center   91 is at   0.105037 -1.937302  2.214625
      ESP Fit Center   92 is at   0.311888  2.035898  1.820679
      ESP Fit Center   93 is at  -0.104320  2.057006  1.820679
      ESP Fit Center   94 is at  -0.516256  1.993899  1.820679
      ESP Fit Center   95 is at  -0.516256 -1.993899  1.820679
      ESP Fit Center   96 is at  -0.104320 -2.057006  1.820679
      ESP Fit Center   97 is at   0.311888 -2.035898  1.820679
      ESP Fit Center   98 is at   0.803635  1.940147  1.410989
      ESP Fit Center   99 is at   0.409690  2.059649  1.410989
      ESP Fit Center  100 is at   0.000000  2.100000  1.410989
      ESP Fit Center  101 is at  -0.409690  2.059649  1.410989
      ESP Fit Center  102 is at  -0.409690 -2.059649  1.410989
      ESP Fit Center  103 is at   0.000000 -2.100000  1.410989
      ESP Fit Center  104 is at   0.409690 -2.059649  1.410989
      ESP Fit Center  105 is at   0.803635 -1.940147  1.410989
      ESP Fit Center  106 is at   0.715327  1.931440  1.001300
      ESP Fit Center  107 is at   0.311888  2.035898  1.001300
      ESP Fit Center  108 is at  -0.104320  2.057006  1.001300
      ESP Fit Center  109 is at  -0.516256  1.993899  1.001300
      ESP Fit Center  110 is at  -0.907057  1.849162  1.001300
      ESP Fit Center  111 is at  -0.907057 -1.849162  1.001300
      ESP Fit Center  112 is at  -0.516256 -1.993899  1.001300
      ESP Fit Center  113 is at  -0.104320 -2.057006  1.001300
      ESP Fit Center  114 is at   0.311888 -2.035898  1.001300
      ESP Fit Center  115 is at   0.715327 -1.931440  1.001300
      ESP Fit Center  116 is at   2.336969  1.747909  2.492089
      ESP Fit Center  117 is at   1.962816  1.931440  2.492089
      ESP Fit Center  118 is at   1.559377  2.035898  2.492089
      ESP Fit Center  119 is at   1.143169  2.057006  2.492089
      ESP Fit Center  120 is at   0.731232  1.993899  2.492089
      ESP Fit Center  121 is at   0.340431  1.849162  2.492089
      ESP Fit Center  122 is at   0.340431 -1.849162  2.492089
      ESP Fit Center  123 is at   0.731232 -1.993899  2.492089
      ESP Fit Center  124 is at   1.143169 -2.057006  2.492089
      ESP Fit Center  125 is at   1.559377 -2.035898  2.492089
      ESP Fit Center  126 is at   1.962816 -1.931440  2.492089
      ESP Fit Center  127 is at   2.336969 -1.747909  2.492089
      ESP Fit Center  128 is at   2.051124  1.940147  2.082400
      ESP Fit Center  129 is at   1.657178  2.059649  2.082400
      ESP Fit Center  130 is at   1.247489  2.100000  2.082400
      ESP Fit Center  131 is at   0.837799  2.059649  2.082400
      ESP Fit Center  132 is at   0.443853  1.940147  2.082400
      ESP Fit Center  133 is at   0.443853 -1.940147  2.082400
      ESP Fit Center  134 is at   0.837799 -2.059649  2.082400
      ESP Fit Center  135 is at   1.247489 -2.100000  2.082400
      ESP Fit Center  136 is at   1.657178 -2.059649  2.082400
      ESP Fit Center  137 is at   2.051124 -1.940147  2.082400
      ESP Fit Center  138 is at   1.559377  2.035898  1.672710
      ESP Fit Center  139 is at   1.143169  2.057006  1.672710
      ESP Fit Center  140 is at   0.731232  1.993899  1.672710
      ESP Fit Center  141 is at   0.731232 -1.993899  1.672710
      ESP Fit Center  142 is at   1.143169 -2.057006  1.672710
      ESP Fit Center  143 is at   1.559377 -2.035898  1.672710
      ESP Fit Center  144 is at   1.352526  1.937302  1.278765
      ESP Fit Center  145 is at   0.933608  1.914589  1.278765
      ESP Fit Center  146 is at   0.933608 -1.914589  1.278765
      ESP Fit Center  147 is at   1.352526 -1.937302  1.278765
      ESP Fit Center  148 is at   3.044501  1.638479  2.479347
      ESP Fit Center  149 is at   2.635798  1.739215  2.479347
      ESP Fit Center  150 is at   2.635798 -1.727495  2.479347
      ESP Fit Center  151 is at   3.334112  1.720003  2.116285
      ESP Fit Center  152 is at   2.944375  1.875289  2.116285
      ESP Fit Center  153 is at   2.530368  1.943162  2.116285
      ESP Fit Center  154 is at   2.111450  1.920448  2.116285
      ESP Fit Center  155 is at   2.530368 -1.931442  2.116285
      ESP Fit Center  156 is at   2.944375 -1.863569  2.116285
      ESP Fit Center  157 is at   3.334112 -1.708283  2.116285
      ESP Fit Center  158 is at   3.514811  1.753769  1.722340
      ESP Fit Center  159 is at   3.140657  1.937300  1.722340
      ESP Fit Center  160 is at   2.737219  2.041758  1.722340
      ESP Fit Center  161 is at   2.321011  2.062865  1.722340
      ESP Fit Center  162 is at   1.909074  1.999759  1.722340
      ESP Fit Center  163 is at   1.909074 -1.988039  1.722340
      ESP Fit Center  164 is at   2.321011 -2.051146  1.722340
      ESP Fit Center  165 is at   2.737219 -2.030038  1.722340
      ESP Fit Center  166 is at   3.140657 -1.925580  1.722340
      ESP Fit Center  167 is at   3.514811 -1.742049  1.722340
      ESP Fit Center  168 is at   3.592028  1.751946  1.312650
      ESP Fit Center  169 is at   3.228966  1.946007  1.312650
      ESP Fit Center  170 is at   2.835020  2.065509  1.312650
      ESP Fit Center  171 is at   2.425330  2.105860  1.312650
      ESP Fit Center  172 is at   2.015641  2.065509  1.312650
      ESP Fit Center  173 is at   1.621695  1.946007  1.312650
      ESP Fit Center  174 is at   1.621695 -1.934287  1.312650
      ESP Fit Center  175 is at   2.015641 -2.053789  1.312650
      ESP Fit Center  176 is at   2.425330 -2.094140  1.312650
      ESP Fit Center  177 is at   2.835020 -2.053789  1.312650
      ESP Fit Center  178 is at   3.228966 -1.934287  1.312650
      ESP Fit Center  179 is at   3.592028 -1.740226  1.312650
      ESP Fit Center  180 is at   3.844361  1.498679  0.902960
      ESP Fit Center  181 is at   3.514811  1.753769  0.902960
      ESP Fit Center  182 is at   3.140657  1.937300  0.902960
      ESP Fit Center  183 is at   2.737219  2.041758  0.902960
      ESP Fit Center  184 is at   2.321011  2.062865  0.902960
      ESP Fit Center  185 is at   1.909074  1.999759  0.902960
      ESP Fit Center  186 is at   1.518273  1.855022  0.902960
      ESP Fit Center  187 is at   1.518273 -1.843302  0.902960
      ESP Fit Center  188 is at   1.909074 -1.988039  0.902960
      ESP Fit Center  189 is at   2.321011 -2.051146  0.902960
      ESP Fit Center  190 is at   2.737219 -2.030038  0.902960
      ESP Fit Center  191 is at   3.140657 -1.925580  0.902960
      ESP Fit Center  192 is at   3.514811 -1.742049  0.902960
      ESP Fit Center  193 is at   3.844361 -1.486959  0.902960
      ESP Fit Center  194 is at   4.098533  1.183705  0.350925
      ESP Fit Center  195 is at   3.827078  1.499912  0.350925
[...]
 9341 Fit       0.012250
 9342 Fit       0.014798
 9343 Fit       0.015551
 9344 Fit       0.016485
 9345 Fit       0.017649
 9346 Fit       0.019054
 9347 Fit       0.020627
 9348 Fit       0.022163
 9349 Fit       0.023329
 9350 Fit       0.026609
 9351 Fit       0.026149
 9352 Fit       0.024587
 9353 Fit       0.022189
 9354 Fit       0.019362
 9355 Fit       0.016511
 9356 Fit       0.013977
 9357 Fit       0.012019
 9358 Fit       0.015425
 9359 Fit       0.016283
 9360 Fit       0.017397
 9361 Fit       0.018826
 9362 Fit       0.020576
 9363 Fit       0.022541
 9364 Fit       0.024464
 9365 Fit       0.025958
 9366 Fit       0.030286
 9367 Fit       0.029928
 9368 Fit       0.028237
 9369 Fit       0.025496
 9370 Fit       0.022151
 9371 Fit       0.018645
 9372 Fit       0.015330
 9373 Fit       0.012482
 9374 Fit       0.016075
 9375 Fit       0.017069
 9376 Fit       0.018430
 9377 Fit       0.020222
 9378 Fit       0.022434
 9379 Fit       0.024925
 9380 Fit       0.027377
 9381 Fit       0.029327
 9382 Fit       0.024939
 9383 Fit       0.020417
 9384 Fit       0.016118
 9385 Fit       0.017371
 9386 Fit       0.018959
 9387 Fit       0.021180
 9388 Fit       0.024046
 9389 Fit       0.027396
 9390 Fit       0.019537
 9391 Fit       0.022301
 9392 Fit       0.008771
 9393 Fit       0.009068
 9394 Fit       0.009845
 9395 Fit       0.007060
 9396 Fit       0.006959
 9397 Fit       0.007455
 9398 Fit       0.008212
 9399 Fit       0.009039
 9400 Fit       0.009893
 9401 Fit       0.004806
 9402 Fit       0.004687
 9403 Fit       0.005224
 9404 Fit       0.006080
 9405 Fit       0.007022
 9406 Fit       0.007924
 9407 Fit       0.008749
 9408 Fit       0.009532
 9409 Fit       0.010364
 9410 Fit       0.001730
 9411 Fit       0.001924
 9412 Fit       0.002763
 9413 Fit       0.003900
 9414 Fit       0.005101
 9415 Fit       0.006229
 9416 Fit       0.007221
 9417 Fit       0.008075
 9418 Fit       0.008832
 9419 Fit       0.009574
 9420 Fit      -0.002244
 9421 Fit      -0.001595
 9422 Fit      -0.000340
 9423 Fit       0.001169
 9424 Fit       0.002706
 9425 Fit       0.004136
 9426 Fit       0.005392
 9427 Fit       0.006457
 9428 Fit       0.007347
 9429 Fit       0.008107
 9430 Fit       0.008808
 9431 Fit       0.009546
 9432 Fit      -0.007789
 9433 Fit      -0.006842
 9434 Fit      -0.005070
 9435 Fit      -0.002971
 9436 Fit      -0.000850
 9437 Fit       0.001119
 9438 Fit       0.002852
 9439 Fit       0.004323
 9440 Fit       0.005539
 9441 Fit       0.006533
 9442 Fit       0.007361
 9443 Fit       0.008099
 9444 Fit       0.008848
 9445 Fit      -0.011746
 9446 Fit      -0.008724
 9447 Fit      -0.005747
 9448 Fit      -0.003021
 9449 Fit      -0.000633
 9450 Fit       0.001395
 9451 Fit       0.003079
 9452 Fit       0.004451
 9453 Fit       0.005563
 9454 Fit       0.006478
 9455 Fit       0.007278
 9456 Fit       0.008064
 9457 Fit      -0.015538
 9458 Fit      -0.011224
 9459 Fit      -0.007452
 9460 Fit      -0.004249
 9461 Fit      -0.001581
 9462 Fit       0.000608
 9463 Fit       0.002382
 9464 Fit       0.003808
 9465 Fit       0.004961
 9466 Fit       0.005924
 9467 Fit       0.006797
 9468 Fit      -0.014743
 9469 Fit      -0.009912
 9470 Fit      -0.006024
 9471 Fit      -0.002914
 9472 Fit      -0.000439
 9473 Fit       0.001521
 9474 Fit       0.003075
 9475 Fit       0.004332
 9476 Fit       0.005411
 9477 Fit       0.006458
 9478 Fit      -0.015726
 9479 Fit      -0.010297
 9480 Fit      -0.006128
 9481 Fit      -0.002913
 9482 Fit      -0.000427
 9483 Fit       0.001510
 9484 Fit       0.003056
 9485 Fit       0.004377
 9486 Fit      -0.015579
 9487 Fit      -0.010018
 9488 Fit      -0.005868
 9489 Fit      -0.002733
 9490 Fit      -0.000331
 9491 Fit       0.001564
 9492 Fit      -0.015796
 9493 Fit      -0.009851
 9494 Fit      -0.005565
 9495 Fit      -0.002399
 9496 Fit      -0.008931
 9497 Fit       0.011682
 9498 Fit       0.011988
 9499 Fit       0.012413
 9500 Fit       0.013087
 9501 Fit       0.010544
 9502 Fit       0.010724
 9503 Fit       0.010906
 9504 Fit       0.011083
 9505 Fit       0.011293
 9506 Fit       0.011628
 9507 Fit       0.012257
 9508 Fit       0.013456
 9509 Fit       0.009749
 9510 Fit       0.009936
 9511 Fit       0.010078
 9512 Fit       0.010151
 9513 Fit       0.010170
 9514 Fit       0.010184
 9515 Fit       0.010293
 9516 Fit       0.010676
 9517 Fit       0.011625
 9518 Fit       0.008718
 9519 Fit       0.008954
 9520 Fit       0.009159
 9521 Fit       0.009280
 9522 Fit       0.009291
 9523 Fit       0.009189
 9524 Fit       0.008996
 9525 Fit       0.008762
 9526 Fit       0.008585
 9527 Fit       0.008632
 9528 Fit       0.009179
 9529 Fit       0.010663
 9530 Fit       0.007670
 9531 Fit       0.007988
 9532 Fit       0.008253
 9533 Fit       0.008412
 9534 Fit       0.008433
 9535 Fit       0.008300
 9536 Fit       0.008014
 9537 Fit       0.007592
 9538 Fit       0.007074
 9539 Fit       0.006537
 9540 Fit       0.006118
 9541 Fit       0.006028
 9542 Fit       0.006470
 9543 Fit       0.006922
 9544 Fit       0.007266
 9545 Fit       0.007456
 9546 Fit       0.007464
 9547 Fit       0.007272
 9548 Fit       0.006872
 9549 Fit       0.006267
 9550 Fit       0.005480
 9551 Fit       0.004557
 9552 Fit       0.003585
 9553 Fit       0.002692
 9554 Fit       0.005396
 9555 Fit       0.005938
 9556 Fit       0.006267
 9557 Fit       0.006361
 9558 Fit       0.006202
 9559 Fit       0.005774
 9560 Fit       0.005070
 9561 Fit       0.004091
 9562 Fit       0.002855
 9563 Fit       0.001400
 9564 Fit      -0.000218
 9565 Fit       0.004216
 9566 Fit       0.004767
 9567 Fit       0.005006
 9568 Fit       0.004928
 9569 Fit       0.004521
 9570 Fit       0.003772
 9571 Fit       0.002667
 9572 Fit       0.001201
 9573 Fit      -0.000629
 9574 Fit      -0.002834
 9575 Fit       0.001956
 9576 Fit       0.002891
 9577 Fit       0.003327
 9578 Fit       0.003297
 9579 Fit       0.002805
 9580 Fit       0.001833
 9581 Fit       0.000352
 9582 Fit      -0.001677
 9583 Fit      -0.004319
 9584 Fit       0.000316
 9585 Fit       0.001149
 9586 Fit       0.001276
 9587 Fit       0.000733
 9588 Fit      -0.000493
 9589 Fit      -0.002460
 9590 Fit      -0.005277
 9591 Fit      -0.009167
 9592 Fit      -0.001487
 9593 Fit      -0.001549
 9594 Fit      -0.002707
 9595 Fit      -0.005036
 9596 Fit      -0.008750
 9597 Fit      -0.005163
 9598 Fit      -0.006802
 9599 Fit      -0.010915
 9600 Fit       0.012433
 9601 Fit       0.013258
 9602 Fit       0.005777
 9603 Fit       0.006725
 9604 Fit       0.007844
 9605 Fit       0.008946
 9606 Fit       0.009939
 9607 Fit       0.010819
 9608 Fit       0.011632
 9609 Fit       0.011846
 9610 Fit       0.012585
 9611 Fit       0.013373
 9612 Fit       0.014216
 9613 Fit       0.015115
 9614 Fit       0.016073
 9615 Fit       0.003323
 9616 Fit       0.001590
 9617 Fit       0.001118
 9618 Fit       0.001653
 9619 Fit       0.002856
 9620 Fit       0.004395
 9621 Fit       0.005992
 9622 Fit       0.007448
 9623 Fit       0.008660
 9624 Fit       0.009630
 9625 Fit       0.010426
 9626 Fit       0.011141
 9627 Fit       0.011491
 9628 Fit       0.012155
 9629 Fit       0.012889
 9630 Fit       0.013690
 9631 Fit       0.014547
 9632 Fit       0.015451
 9633 Fit       0.016405
 9634 Fit       0.017435
 9635 Fit       0.018581
 9636 Fit       0.019874
 9637 Fit      -0.004340
 9638 Fit      -0.003799
 9639 Fit      -0.002291
 9640 Fit      -0.000230
 9641 Fit       0.002036
 9642 Fit       0.009649
 9643 Fit       0.010299
 9644 Fit       0.010886
 9645 Fit       0.011305
 9646 Fit       0.011926
 9647 Fit       0.012654
 9648 Fit       0.013476
 9649 Fit       0.014371
 9650 Fit       0.015314
 9651 Fit       0.016288
 9652 Fit       0.017305
 9653 Fit       0.018416
 9654 Fit       0.019704
 9655 Fit       0.021236
 9656 Fit       0.022999
 9657 Fit      -0.010172
 9658 Fit      -0.007536
 9659 Fit      -0.004402
 9660 Fit       0.010317
 9661 Fit       0.010781
 9662 Fit       0.011226
 9663 Fit       0.011821
 9664 Fit       0.012562
 9665 Fit       0.013435
 9666 Fit       0.014409
 9667 Fit       0.023426
 9668 Fit       0.010773
 9669 Fit       0.011198
 9670 Fit       0.011802
 9671 Fit       0.012598
 9672 Fit       0.013568
 9673 Fit       0.010784
 9674 Fit       0.011176
 9675 Fit       0.011843
 9676 Fit       0.012760
 9677 Fit       0.011124
 9678 Fit       0.011881
 9679 Fit       0.011019
 9680 Fit       0.011884
 9681 Fit       0.010851
 9682 Fit       0.011885
 9683 Fit       0.010624
 9684 Fit       0.010358
 9685 Fit       0.009126
 9686 Fit       0.010081
 9687 Fit       0.008529
 9688 Fit       0.009828
 9689 Fit       0.011726
 9690 Fit       0.005822
 9691 Fit       0.007939
 9692 Fit       0.009630
 9693 Fit       0.011892
 9694 Fit       0.000366
 9695 Fit       0.004302
 9696 Fit       0.007214
 9697 Fit       0.009513
 9698 Fit       0.012059
 9699 Fit       0.014354
 9700 Fit       0.002968
 9701 Fit       0.006609
 9702 Fit       0.009486
 9703 Fit       0.012440
 9704 Fit       0.015558
 9705 Fit       0.016367
 9706 Fit       0.017382
 9707 Fit       0.018722
 9708 Fit       0.014450
 9709 Fit       0.015076
 9710 Fit       0.015789
 9711 Fit       0.016625
 9712 Fit       0.017665
 9713 Fit       0.019049
 9714 Fit       0.021003
 9715 Fit       0.023838
 9716 Fit       0.013649
 9717 Fit       0.014230
 9718 Fit       0.014878
 9719 Fit       0.015587
 9720 Fit       0.016385
 9721 Fit       0.017343
 9722 Fit       0.018593
 9723 Fit       0.020366
 9724 Fit       0.023046
 9725 Fit       0.012951
 9726 Fit       0.013481
 9727 Fit       0.014095
 9728 Fit       0.014757
 9729 Fit       0.015459
 9730 Fit       0.016222
 9731 Fit       0.017104
 9732 Fit       0.018215
 9733 Fit       0.019750
 9734 Fit       0.022062
 9735 Fit       0.012799
 9736 Fit       0.013389
 9737 Fit       0.014044
 9738 Fit       0.014731
 9739 Fit       0.015445
 9740 Fit       0.016205
 9741 Fit       0.017063
 9742 Fit       0.018120
 9743 Fit       0.019555
 9744 Fit       0.021699
 9745 Fit       0.012700
 9746 Fit       0.013375
 9747 Fit       0.014098
 9748 Fit       0.014840
 9749 Fit       0.015602
 9750 Fit       0.016411
 9751 Fit       0.017329
 9752 Fit       0.018476
 9753 Fit       0.020073
 9754 Fit       0.022532
 9755 Fit       0.012651
 9756 Fit       0.013422
 9757 Fit       0.014221
 9758 Fit       0.015030
 9759 Fit       0.015857
 9760 Fit       0.016742
 9761 Fit       0.017771
 9762 Fit       0.019100
 9763 Fit       0.021021
 9764 Fit       0.011958
 9765 Fit       0.012662
 9766 Fit       0.013513
 9767 Fit       0.014373
 9768 Fit       0.015236
 9769 Fit       0.016121
 9770 Fit       0.017079
 9771 Fit       0.018215
 9772 Fit       0.019708
 9773 Fit       0.021874
 9774 Fit       0.011853
 9775 Fit       0.012756
 9776 Fit       0.013725
 9777 Fit       0.014690
 9778 Fit       0.015660
 9779 Fit       0.016675
 9780 Fit       0.017820
 9781 Fit       0.019244
 9782 Fit       0.021170
 9783 Fit       0.011799
 9784 Fit       0.012969
 9785 Fit       0.014037
 9786 Fit       0.015099
 9787 Fit       0.016179
 9788 Fit       0.017337
 9789 Fit       0.018674
 9790 Fit       0.020287
 9791 Fit       0.011896
 9792 Fit       0.013348
 9793 Fit       0.014535
 9794 Fit       0.015734
 9795 Fit       0.016977
 9796 Fit       0.018305
 9797 Fit       0.019641
 9798 Fit       0.013945
 9799 Fit       0.015315
 9800 Fit       0.016731
 9801 Fit       0.018062
 9802 Fit       0.014801
 9803 Fit       0.016375
 9804 Fit       0.015068
 9805 Fit       0.014534
 9806 Fit       0.015484
 9807 Fit       0.016105
 9808 Fit       0.015659
 9809 Fit       0.014436
 9810 Fit       0.013957
 9811 Fit       0.014046
 9812 Fit       0.014893
 9813 Fit       0.015747
 9814 Fit       0.016526
 9815 Fit       0.017076
 9816 Fit       0.017106
 9817 Fit       0.016333
 9818 Fit       0.014914
 9819 Fit       0.013525
 9820 Fit       0.012775
 9821 Fit       0.012775
 9822 Fit       0.013288
 9823 Fit       0.013608
 9824 Fit       0.014376
 9825 Fit       0.015147
 9826 Fit       0.015918
 9827 Fit       0.016679
 9828 Fit       0.017399
 9829 Fit       0.018000
 9830 Fit       0.018314
 9831 Fit       0.018086
 9832 Fit       0.017119
 9833 Fit       0.015520
 9834 Fit       0.013728
 9835 Fit       0.012255
 9836 Fit       0.011411
 9837 Fit       0.011227
 9838 Fit       0.011538
 9839 Fit       0.012132
 9840 Fit       0.012849
 9841 Fit       0.013238
 9842 Fit       0.013977
 9843 Fit       0.014709
 9844 Fit       0.015444
 9845 Fit       0.016190
 9846 Fit       0.016950
 9847 Fit       0.017715
 9848 Fit       0.018459
 9849 Fit       0.019118
 9850 Fit       0.019554
 9851 Fit       0.019517
 9852 Fit       0.018738
 9853 Fit       0.017148
 9854 Fit       0.015011
 9855 Fit       0.012802
 9856 Fit       0.010986
 9857 Fit       0.009843
 9858 Fit       0.009425
 9859 Fit       0.009601
 9860 Fit       0.010161
 9861 Fit       0.010905
 9862 Fit       0.011699
 9863 Fit       0.012481
 9864 Fit       0.012973
 9865 Fit       0.013702
 9866 Fit       0.014423
 9867 Fit       0.015148
 9868 Fit       0.015890
 9869 Fit       0.016658
 9870 Fit       0.017457
 9871 Fit       0.018280
 9872 Fit       0.019104
 9873 Fit       0.019896
 9874 Fit       0.020592
 9875 Fit       0.021033
 9876 Fit       0.020919
 9877 Fit       0.019925
 9878 Fit       0.017964
 9879 Fit       0.015309
 9880 Fit       0.012464
 9881 Fit       0.009959
 9882 Fit       0.008180
 9883 Fit       0.007279
 9884 Fit       0.007188
 9885 Fit       0.007700
 9886 Fit       0.008562
 9887 Fit       0.009552
 9888 Fit       0.010522
 9889 Fit       0.011410
 9890 Fit       0.012218
 9891 Fit       0.014277
 9892 Fit       0.014996
 9893 Fit       0.015735
 9894 Fit       0.016505
 9895 Fit       0.017321
 9896 Fit       0.018188
 9897 Fit       0.019093
 9898 Fit       0.019995
 9899 Fit       0.020845
 9900 Fit       0.021604
 9901 Fit       0.022231
 9902 Fit       0.022578
 9903 Fit       0.022317
 9904 Fit       0.021079
 9905 Fit       0.018742
 9906 Fit       0.015553
 9907 Fit       0.012009
 9908 Fit       0.008699
 9909 Fit       0.006132
 9910 Fit       0.004601
 9911 Fit       0.004128
 9912 Fit       0.018770
 9913 Fit       0.019868
 9914 Fit       0.021011
 9915 Fit       0.022077
 9916 Fit       0.022915
 9917 Fit       0.023451
 9918 Fit       0.003690
 9919 Fit       0.005382
 9920 Fit       0.006914
 9921 Fit       0.008255
 9922 Fit       0.009458
 9923 Fit      -0.000769
 9924 Fit       0.001577
 9925 Fit       0.003689
 9926 Fit       0.005494
 9927 Fit       0.006999
 9928 Fit       0.008253
 9929 Fit       0.009338
 9930 Fit       0.010180
 9931 Fit      -0.006959
 9932 Fit      -0.003585
 9933 Fit      -0.000598
 9934 Fit       0.001940
 9935 Fit       0.004042
 9936 Fit       0.005757
 9937 Fit       0.007150
 9938 Fit       0.008292
 9939 Fit       0.009270
 9940 Fit       0.010017
 9941 Fit      -0.013831
 9942 Fit      -0.008751
 9943 Fit      -0.004535
 9944 Fit      -0.001101
 9945 Fit       0.001666
 9946 Fit       0.003881
 9947 Fit       0.005645
 9948 Fit       0.007050
 9949 Fit       0.008185
 9950 Fit       0.009141
 9951 Fit       0.009833
 9952 Fit       0.010720
 9953 Fit      -0.015468
 9954 Fit      -0.009545
 9955 Fit      -0.004934
 9956 Fit      -0.001324
 9957 Fit       0.001515
 9958 Fit       0.003752
 9959 Fit       0.005515
 9960 Fit       0.006911
 9961 Fit       0.008034
 9962 Fit       0.008976
 9963 Fit       0.009596
 9964 Fit       0.010499
 9965 Fit      -0.017811
 9966 Fit      -0.011028
 9967 Fit      -0.005937
 9968 Fit      -0.002047
 9969 Fit       0.000962
 9970 Fit       0.003307
 9971 Fit       0.005143
 9972 Fit       0.006590
 9973 Fit       0.007750
 9974 Fit       0.008718
 9975 Fit       0.009284
 9976 Fit       0.010268
 9977 Fit      -0.015404
 9978 Fit      -0.008934
 9979 Fit      -0.004163
 9980 Fit      -0.000570
 9981 Fit       0.002176
 9982 Fit       0.004292
 9983 Fit       0.005939
 9984 Fit       0.007244
 9985 Fit       0.008320
 9986 Fit       0.008877
 9987 Fit       0.009990
 9988 Fit      -0.013793
 9989 Fit      -0.007512
 9990 Fit      -0.002943
 9991 Fit       0.000458
 9992 Fit       0.003028
 9993 Fit       0.004994
 9994 Fit       0.006529
 9995 Fit       0.007776
 9996 Fit       0.008361
 9997 Fit       0.009617
 9998 Fit      -0.011399
 9999 Fit      -0.005708
 **** Fit      -0.001563
 **** Fit       0.001518
 **** Fit       0.003849
 **** Fit       0.005649
 **** Fit       0.007099
 **** Fit       0.007723
 **** Fit      -0.011403
 **** Fit      -0.005427
 **** Fit      -0.001152
 **** Fit       0.001979
 **** Fit       0.004328
 **** Fit       0.006165
 **** Fit       0.006941
 **** Fit      -0.010538
 **** Fit      -0.004627
 **** Fit      -0.000411
 **** Fit       0.002670
 **** Fit       0.005013
 **** Fit      -0.010201
 **** Fit      -0.004086
 **** Fit       0.000281
 **** Fit       0.003476
 **** Fit      -0.003614
 **** Fit       0.001230
 **** Fit       0.019149
 **** Fit       0.016414
 **** Fit       0.026591
 **** Fit       0.023800
 **** Fit       0.019712
 **** Fit       0.015082
 **** Fit       0.010800
 **** Fit       0.007509
 **** Fit       0.011153
 **** Fit       0.009871
 **** Fit       0.009256
 **** Fit       0.009441
 **** Fit       0.010743
 **** Fit       0.006373
 **** Fit       0.004753
 **** Fit       0.003668
 **** Fit       0.003102
 **** Fit       0.002679
 **** Fit       0.000799
 **** Fit      -0.000585
 **** Fit      -0.001584
 **** Fit      -0.003806
 **** Fit      -0.005317
 **** Fit      -0.008283
 **** Fit      -0.011883
 **** Fit      -0.012915
 **** Fit       0.031699
 **** Fit       0.031384
 **** Fit       0.030269
 **** Fit       0.029805
 **** Fit       0.029068
 **** Fit       0.028572
 **** Fit       0.030152
 **** Fit       0.030300
 **** Fit       0.029215
 **** Fit       0.028680
 **** Fit       0.027529
 **** Fit       0.026147
 **** Fit       0.025107
 **** Fit       0.024921
 **** Fit       0.027563
 **** Fit       0.027790
 **** Fit       0.028442
 **** Fit       0.029060
 **** Fit       0.028467
 **** Fit       0.027908
 **** Fit       0.026403
 **** Fit       0.024254
 **** Fit       0.022065
 **** Fit       0.020499
 **** Fit       0.024621
 **** Fit       0.024261
 **** Fit       0.024685
 **** Fit       0.025748
 **** Fit       0.027058
 **** Fit       0.028104
 **** Fit       0.027893
 **** Fit       0.027482
 **** Fit       0.025794
 **** Fit       0.020731
 **** Fit       0.020364
 **** Fit       0.020824
 **** Fit       0.022114
 **** Fit       0.023968
 **** Fit       0.025856
 **** Fit       0.027265
 **** Fit       0.016898
 **** Fit       0.016041
 **** Fit       0.016046
 **** Fit       0.017083
 **** Fit       0.019158
 -----------------------------------------------------------------
 Leave Link  602 at Tue Oct 18 16:50:26 2016, MaxMem=    33554432 cpu:         6.9
 Recover reactant geometry.  Energy = -0.10028540D+04
 ----------------------------------------------------------------------
 1 2 1.5 6 2.0 7 1.0 2 3 1.5 11 1.5 3 4 1.5 14 1.0 4 5 2.0 8 1.0 5 6 1.
 5 9 1.0 6 10 1.0 7 8 9 10 11 12 1.0 13 1.0 12 13 14 15 1.0 24 2.0 15 1
 6 1.0 17 1.0 18 1.0 16 17 18 19 1.0 20 1.0 21 1.0 19 20 23 2.0 37 1.0 
 21 22 1.0 25 1.5 22 23 24 25 27 2.0 33 1.0 26 28 2.0 29 1.0 37 1.0 27 
 28 29 30 1.0 31 1.0 32 1.0 30 31 32 33 34 1.0 35 1.0 36 1.0 34 35 36 3
 7 38 1.0 38
 ----------------------------------------------------------------------
 Charge and Multiplicity card seems defective:
 Wanted an integer as input.
                                                                                 
 ?
 Error termination via Lnk1e in /apps/gaussian/g09/em64t-sse4_2/l101.exe at Tue Oct 18 16:50:26 2016.
 Job cpu time:       0 days  0 hours  5 minutes 51.0 seconds.
 File lengths (MBytes):  RWF=     67 Int=      0 D2E=      0 Chk=      7 Scr=      1
