 Entering Gaussian System, Link 0=g09
 Initial command:
 /apps/gaussian/g09/em64t-sse4_2/l1.exe "/ufrc/chm6580/share/aravinda1879/multi_confo/Gau-1832.inp" -scrdir="/ufrc/chm6580/share/aravinda1879/multi_confo/"
 Entering Link 1 = /apps/gaussian/g09/em64t-sse4_2/l1.exe PID=      1836.
  
 Copyright (c) 1988,1990,1992,1993,1995,1998,2003,2009,2013,
            Gaussian, Inc.  All Rights Reserved.
  
 This is part of the Gaussian(R) 09 program.  It is based on
 the Gaussian(R) 03 system (copyright 2003, Gaussian, Inc.),
 the Gaussian(R) 98 system (copyright 1998, Gaussian, Inc.),
 the Gaussian(R) 94 system (copyright 1995, Gaussian, Inc.),
 the Gaussian 92(TM) system (copyright 1992, Gaussian, Inc.),
 the Gaussian 90(TM) system (copyright 1990, Gaussian, Inc.),
 the Gaussian 88(TM) system (copyright 1988, Gaussian, Inc.),
 the Gaussian 86(TM) system (copyright 1986, Carnegie Mellon
 University), and the Gaussian 82(TM) system (copyright 1983,
 Carnegie Mellon University). Gaussian is a federally registered
 trademark of Gaussian, Inc.
  
 This software contains proprietary and confidential information,
 including trade secrets, belonging to Gaussian, Inc.
  
 This software is provided under written license and may be
 used, copied, transmitted, or stored only in accord with that
 written license.
  
 The following legend is applicable only to US Government
 contracts under FAR:
  
                    RESTRICTED RIGHTS LEGEND
  
 Use, reproduction and disclosure by the US Government is
 subject to restrictions as set forth in subparagraphs (a)
 and (c) of the Commercial Computer Software - Restricted
 Rights clause in FAR 52.227-19.
  
 Gaussian, Inc.
 340 Quinnipiac St., Bldg. 40, Wallingford CT 06492
  
  
 ---------------------------------------------------------------
 Warning -- This program may not be used in any manner that
 competes with the business of Gaussian, Inc. or will provide
 assistance to any competitor of Gaussian, Inc.  The licensee
 of this program is prohibited from giving any competitor of
 Gaussian, Inc. access to this program.  By using this program,
 the user acknowledges that Gaussian, Inc. is engaged in the
 business of creating and licensing software in the field of
 computational chemistry and represents and warrants to the
 licensee that it is not a competitor of Gaussian, Inc. and that
 it will not use this program in any manner prohibited above.
 ---------------------------------------------------------------
  

 Cite this work as:
 Gaussian 09, Revision D.01,
 M. J. Frisch, G. W. Trucks, H. B. Schlegel, G. E. Scuseria, 
 M. A. Robb, J. R. Cheeseman, G. Scalmani, V. Barone, B. Mennucci, 
 G. A. Petersson, H. Nakatsuji, M. Caricato, X. Li, H. P. Hratchian, 
 A. F. Izmaylov, J. Bloino, G. Zheng, J. L. Sonnenberg, M. Hada, 
 M. Ehara, K. Toyota, R. Fukuda, J. Hasegawa, M. Ishida, T. Nakajima, 
 Y. Honda, O. Kitao, H. Nakai, T. Vreven, J. A. Montgomery, Jr., 
 J. E. Peralta, F. Ogliaro, M. Bearpark, J. J. Heyd, E. Brothers, 
 K. N. Kudin, V. N. Staroverov, T. Keith, R. Kobayashi, J. Normand, 
 K. Raghavachari, A. Rendell, J. C. Burant, S. S. Iyengar, J. Tomasi, 
 M. Cossi, N. Rega, J. M. Millam, M. Klene, J. E. Knox, J. B. Cross, 
 V. Bakken, C. Adamo, J. Jaramillo, R. Gomperts, R. E. Stratmann, 
 O. Yazyev, A. J. Austin, R. Cammi, C. Pomelli, J. W. Ochterski, 
 R. L. Martin, K. Morokuma, V. G. Zakrzewski, G. A. Voth, 
 P. Salvador, J. J. Dannenberg, S. Dapprich, A. D. Daniels, 
 O. Farkas, J. B. Foresman, J. V. Ortiz, J. Cioslowski, 
 and D. J. Fox, Gaussian, Inc., Wallingford CT, 2013.
 
 ******************************************
 Gaussian 09:  ES64L-G09RevD.01 24-Apr-2013
                18-Oct-2016 
 ******************************************
 %chk=d-kynurenine_r_resp_cap_1_1.chk
 ----------------------------------------------------------------------
 # opt hf/6-31g* geom=connectivity iop(6/33=2,6/42=6) pop=mk scf=tight 
 test
 ----------------------------------------------------------------------
 1/18=20,19=15,38=1,57=2/1,3;
 2/9=110,12=2,17=6,18=5,40=1/2;
 3/5=1,6=6,7=1,11=9,16=1,25=1,30=1,71=1/1,2,3;
 4//1;
 5/5=2,32=2,38=5/2;
 6/7=2,8=2,9=2,10=2,15=8,20=1,28=1,33=2,42=6/1,2;
 7//1,2,3,16;
 1/18=20,19=15/3(2);
 2/9=110/2;
 99//99;
 2/9=110/2;
 3/5=1,6=6,7=1,11=9,16=1,25=1,30=1,71=1/1,2,3;
 4/5=5,16=3,69=1/1;
 5/5=2,32=2,38=5/2;
 7//1,2,3,16;
 1/18=20,19=15/3(-5);
 2/9=110/2;
 6/7=2,8=2,9=2,10=2,15=8,19=2,20=1,28=1,33=2,42=6/1,2;
 99/9=1/99;
 -------------
 Molecule Name
 -------------
 Symbolic Z-matrix:
 Charge =  0 Multiplicity = 1
 C
 C                    1    B1
 C                    2    B2       1    A1
 C                    3    B3       2    A2       1    D1       0
 C                    4    B4       3    A3       2    D2       0
 C                    1    B5       2    A4       3    D3       0
 H                    1    B6       6    A5       5    D4       0
 H                    4    B7       3    A6       2    D5       0
 H                    5    B8       4    A7       3    D6       0
 H                    6    B9       1    A8       2    D7       0
 N                    2    B10      1    A9       6    D8       0
 H                    11   B11      2    A10      1    D9       0
 H                    11   B12      2    A11      1    D10      0
 C                    3    B13      2    A12      1    D11      0
 C                    14   B14      3    A13      2    D12      0
 H                    15   B15      14   A14      3    D13      0
 H                    15   B16      14   A15      3    D14      0
 C                    15   B17      14   A16      3    D15      0
 H                    18   B18      15   A17      14   D16      0
 C                    18   B19      15   A18      14   D17      0
 N                    18   B20      15   A19      14   D18      0
 H                    21   B21      18   A20      15   D19      0
 O                    20   B22      18   A21      15   D20      0
 O                    20   B23      18   A22      15   D21      0
 O                    14   B24      3    A23      2    D22      0
 C                    23   B25      20   A24      18   D23      0
 C                    21   B26      18   A25      15   D24      0
 O                    26   B27      23   A26      20   D25      0
 C                    26   B28      23   A27      20   D26      0
 H                    29   B29      26   A28      23   D27      0
 H                    29   B30      26   A29      23   D28      0
 H                    29   B31      26   A30      23   D29      0
 C                    27   B32      21   A31      18   D30      0
 H                    33   B33      27   A32      21   D31      0
 H                    33   B34      27   A33      21   D32      0
 H                    33   B35      27   A34      21   D33      0
 O                    27   B36      21   A35      18   D34      0
       Variables:
  B1                    1.40977                  
  B2                    1.41653                  
  B3                    1.40523                  
  B4                    1.373                    
  B5                    1.37046                  
  B6                    1.07124                  
  B7                    1.06832                  
  B8                    1.0691                   
  B9                    1.07128                  
  B10                   1.3607                   
  B11                   0.98692                  
  B12                   0.98816                  
  B13                   1.47126                  
  B14                   1.5141                   
  B15                   1.08371                  
  B16                   1.0773                   
  B17                   1.52372                  
  B18                   1.0753                   
  B19                   1.51195                  
  B20                   1.45558                  
  B21                   0.99505                  
  B22                   1.34181                  
  B23                   1.2138                   
  B24                   1.23268                  
  B25                   1.44322                  
  B26                   1.45442                  
  B27                   1.43                     
  B28                   1.54                     
  B29                   1.07                     
  B30                   1.07                     
  B31                   1.07                     
  B32                   1.54                     
  B33                   1.07                     
  B34                   1.07                     
  B35                   1.07                     
  B36                   1.43                     
  A1                  118.38549                  
  A2                  118.28559                  
  A3                  122.63363                  
  A4                  121.41984                  
  A5                  120.16155                  
  A6                  119.19524                  
  A7                  120.64933                  
  A8                  119.37212                  
  A9                  118.56527                  
  A10                 119.90892                  
  A11                 120.07486                  
  A12                 121.19036                  
  A13                 120.03105                  
  A14                 108.09541                  
  A15                 111.16016                  
  A16                 111.41177                  
  A17                 109.42484                  
  A18                 110.87188                  
  A19                 110.17446                  
  A20                 114.40701                  
  A21                 112.24275                  
  A22                 125.74294                  
  A23                 121.38093                  
  A24                 119.6698                   
  A25                 119.43003                  
  A26                 110.22113                  
  A27                 105.24266                  
  A28                 109.4712                   
  A29                 109.4712                   
  A30                 109.47123                  
  A31                 108.77877                  
  A32                 109.4712                   
  A33                 109.4712                   
  A34                 109.47123                  
  A35                 109.10787                  
  D1                    1.04074                  
  D2                   -0.47798                  
  D3                   -0.8644                   
  D4                  179.69991                  
  D5                  179.06795                  
  D6                  179.76191                  
  D7                 -179.759                    
  D8                  179.37868                  
  D9                    0.91693                  
  D10                -177.76656                  
  D11                -179.72073                  
  D12                 176.44168                  
  D13                  78.46073                  
  D14                 -38.14757                  
  D15                -159.73569                  
  D16                 -44.28828                  
  D17                -162.92793                  
  D18                  73.7274                   
  D19                  71.49463                  
  D20                 163.54391                  
  D21                 -18.65519                  
  D22                  -5.82977                  
  D23                 177.11568                  
  D24                -146.29026                  
  D25                 -60.94448                  
  D26                 179.50412                  
  D27                -174.80427                  
  D28                 -54.80425                  
  D29                  65.19574                  
  D30                 172.65526                  
  D31                 161.9034                   
  D32                 -78.09659                  
  D33                  41.9034                   
  D34                  55.43713                  
 
     6 tetrahedral angles replaced.

 GradGradGradGradGradGradGradGradGradGradGradGradGradGradGradGradGradGrad
 Berny optimization.
 Initialization pass.
                           ----------------------------
                           !    Initial Parameters    !
                           ! (Angstroms and Degrees)  !
 --------------------------                            --------------------------
 ! Name  Definition              Value          Derivative Info.                !
 --------------------------------------------------------------------------------
 ! R1    R(1,2)                  1.4098         estimate D2E/DX2                !
 ! R2    R(1,6)                  1.3705         estimate D2E/DX2                !
 ! R3    R(1,7)                  1.0712         estimate D2E/DX2                !
 ! R4    R(2,3)                  1.4165         estimate D2E/DX2                !
 ! R5    R(2,11)                 1.3607         estimate D2E/DX2                !
 ! R6    R(3,4)                  1.4052         estimate D2E/DX2                !
 ! R7    R(3,14)                 1.4713         estimate D2E/DX2                !
 ! R8    R(4,5)                  1.373          estimate D2E/DX2                !
 ! R9    R(4,8)                  1.0683         estimate D2E/DX2                !
 ! R10   R(5,6)                  1.3963         estimate D2E/DX2                !
 ! R11   R(5,9)                  1.0691         estimate D2E/DX2                !
 ! R12   R(6,10)                 1.0713         estimate D2E/DX2                !
 ! R13   R(11,12)                0.9869         estimate D2E/DX2                !
 ! R14   R(11,13)                0.9882         estimate D2E/DX2                !
 ! R15   R(14,15)                1.5141         estimate D2E/DX2                !
 ! R16   R(14,25)                1.2327         estimate D2E/DX2                !
 ! R17   R(15,16)                1.0837         estimate D2E/DX2                !
 ! R18   R(15,17)                1.0773         estimate D2E/DX2                !
 ! R19   R(15,18)                1.5237         estimate D2E/DX2                !
 ! R20   R(18,19)                1.0753         estimate D2E/DX2                !
 ! R21   R(18,20)                1.5119         estimate D2E/DX2                !
 ! R22   R(18,21)                1.4556         estimate D2E/DX2                !
 ! R23   R(20,23)                1.3418         estimate D2E/DX2                !
 ! R24   R(20,24)                1.2138         estimate D2E/DX2                !
 ! R25   R(21,22)                0.995          estimate D2E/DX2                !
 ! R26   R(21,27)                1.4544         estimate D2E/DX2                !
 ! R27   R(23,26)                1.4432         estimate D2E/DX2                !
 ! R28   R(26,28)                1.43           estimate D2E/DX2                !
 ! R29   R(26,29)                1.54           estimate D2E/DX2                !
 ! R30   R(27,33)                1.54           estimate D2E/DX2                !
 ! R31   R(27,37)                1.43           estimate D2E/DX2                !
 ! R32   R(29,30)                1.07           estimate D2E/DX2                !
 ! R33   R(29,31)                1.07           estimate D2E/DX2                !
 ! R34   R(29,32)                1.07           estimate D2E/DX2                !
 ! R35   R(33,34)                1.07           estimate D2E/DX2                !
 ! R36   R(33,35)                1.07           estimate D2E/DX2                !
 ! R37   R(33,36)                1.07           estimate D2E/DX2                !
 ! A1    A(2,1,6)              121.4198         estimate D2E/DX2                !
 ! A2    A(2,1,7)              118.4176         estimate D2E/DX2                !
 ! A3    A(6,1,7)              120.1615         estimate D2E/DX2                !
 ! A4    A(1,2,3)              118.3855         estimate D2E/DX2                !
 ! A5    A(1,2,11)             118.5653         estimate D2E/DX2                !
 ! A6    A(3,2,11)             123.0488         estimate D2E/DX2                !
 ! A7    A(2,3,4)              118.2856         estimate D2E/DX2                !
 ! A8    A(2,3,14)             121.1904         estimate D2E/DX2                !
 ! A9    A(4,3,14)             120.5196         estimate D2E/DX2                !
 ! A10   A(3,4,5)              122.6336         estimate D2E/DX2                !
 ! A11   A(3,4,8)              119.1952         estimate D2E/DX2                !
 ! A12   A(5,4,8)              118.1696         estimate D2E/DX2                !
 ! A13   A(4,5,6)              118.5619         estimate D2E/DX2                !
 ! A14   A(4,5,9)              120.6493         estimate D2E/DX2                !
 ! A15   A(6,5,9)              120.7887         estimate D2E/DX2                !
 ! A16   A(1,6,5)              120.7047         estimate D2E/DX2                !
 ! A17   A(1,6,10)             119.3721         estimate D2E/DX2                !
 ! A18   A(5,6,10)             119.9229         estimate D2E/DX2                !
 ! A19   A(2,11,12)            119.9089         estimate D2E/DX2                !
 ! A20   A(2,11,13)            120.0749         estimate D2E/DX2                !
 ! A21   A(12,11,13)           120.0031         estimate D2E/DX2                !
 ! A22   A(3,14,15)            120.031          estimate D2E/DX2                !
 ! A23   A(3,14,25)            121.3809         estimate D2E/DX2                !
 ! A24   A(15,14,25)           118.5501         estimate D2E/DX2                !
 ! A25   A(14,15,16)           108.0954         estimate D2E/DX2                !
 ! A26   A(14,15,17)           111.1602         estimate D2E/DX2                !
 ! A27   A(14,15,18)           111.4118         estimate D2E/DX2                !
 ! A28   A(16,15,17)           106.5536         estimate D2E/DX2                !
 ! A29   A(16,15,18)           110.6696         estimate D2E/DX2                !
 ! A30   A(17,15,18)           108.8442         estimate D2E/DX2                !
 ! A31   A(15,18,19)           109.4248         estimate D2E/DX2                !
 ! A32   A(15,18,20)           110.8719         estimate D2E/DX2                !
 ! A33   A(15,18,21)           110.1745         estimate D2E/DX2                !
 ! A34   A(19,18,20)           107.69           estimate D2E/DX2                !
 ! A35   A(19,18,21)           107.5238         estimate D2E/DX2                !
 ! A36   A(20,18,21)           111.0523         estimate D2E/DX2                !
 ! A37   A(18,20,23)           112.2427         estimate D2E/DX2                !
 ! A38   A(18,20,24)           125.7429         estimate D2E/DX2                !
 ! A39   A(23,20,24)           121.9769         estimate D2E/DX2                !
 ! A40   A(18,21,22)           114.407          estimate D2E/DX2                !
 ! A41   A(18,21,27)           119.43           estimate D2E/DX2                !
 ! A42   A(22,21,27)           115.0734         estimate D2E/DX2                !
 ! A43   A(20,23,26)           119.6698         estimate D2E/DX2                !
 ! A44   A(23,26,28)           110.2211         estimate D2E/DX2                !
 ! A45   A(23,26,29)           105.2427         estimate D2E/DX2                !
 ! A46   A(28,26,29)           110.8334         estimate D2E/DX2                !
 ! A47   A(21,27,33)           108.7788         estimate D2E/DX2                !
 ! A48   A(21,27,37)           109.1079         estimate D2E/DX2                !
 ! A49   A(33,27,37)           107.6857         estimate D2E/DX2                !
 ! A50   A(26,29,30)           109.4712         estimate D2E/DX2                !
 ! A51   A(26,29,31)           109.4712         estimate D2E/DX2                !
 ! A52   A(26,29,32)           109.4712         estimate D2E/DX2                !
 ! A53   A(30,29,31)           109.4712         estimate D2E/DX2                !
 ! A54   A(30,29,32)           109.4712         estimate D2E/DX2                !
 ! A55   A(31,29,32)           109.4712         estimate D2E/DX2                !
 ! A56   A(27,33,34)           109.4712         estimate D2E/DX2                !
 ! A57   A(27,33,35)           109.4712         estimate D2E/DX2                !
 ! A58   A(27,33,36)           109.4712         estimate D2E/DX2                !
 ! A59   A(34,33,35)           109.4712         estimate D2E/DX2                !
 ! A60   A(34,33,36)           109.4712         estimate D2E/DX2                !
 ! A61   A(35,33,36)           109.4712         estimate D2E/DX2                !
 ! D1    D(6,1,2,3)             -0.8644         estimate D2E/DX2                !
 ! D2    D(6,1,2,11)           179.3787         estimate D2E/DX2                !
 ! D3    D(7,1,2,3)            179.5075         estimate D2E/DX2                !
 ! D4    D(7,1,2,11)            -0.2494         estimate D2E/DX2                !
 ! D5    D(2,1,6,5)              0.0782         estimate D2E/DX2                !
 ! D6    D(2,1,6,10)          -179.759          estimate D2E/DX2                !
 ! D7    D(7,1,6,5)            179.6999         estimate D2E/DX2                !
 ! D8    D(7,1,6,10)            -0.1373         estimate D2E/DX2                !
 ! D9    D(1,2,3,4)              1.0407         estimate D2E/DX2                !
 ! D10   D(1,2,3,14)          -179.7207         estimate D2E/DX2                !
 ! D11   D(11,2,3,4)          -179.214          estimate D2E/DX2                !
 ! D12   D(11,2,3,14)            0.0246         estimate D2E/DX2                !
 ! D13   D(1,2,11,12)            0.9169         estimate D2E/DX2                !
 ! D14   D(1,2,11,13)         -177.7666         estimate D2E/DX2                !
 ! D15   D(3,2,11,12)         -178.8279         estimate D2E/DX2                !
 ! D16   D(3,2,11,13)            2.4886         estimate D2E/DX2                !
 ! D17   D(2,3,4,5)             -0.478          estimate D2E/DX2                !
 ! D18   D(2,3,4,8)            179.068          estimate D2E/DX2                !
 ! D19   D(14,3,4,5)          -179.7218         estimate D2E/DX2                !
 ! D20   D(14,3,4,8)            -0.1759         estimate D2E/DX2                !
 ! D21   D(2,3,14,15)          176.4417         estimate D2E/DX2                !
 ! D22   D(2,3,14,25)           -5.8298         estimate D2E/DX2                !
 ! D23   D(4,3,14,15)           -4.3367         estimate D2E/DX2                !
 ! D24   D(4,3,14,25)          173.3918         estimate D2E/DX2                !
 ! D25   D(3,4,5,6)             -0.3059         estimate D2E/DX2                !
 ! D26   D(3,4,5,9)            179.7619         estimate D2E/DX2                !
 ! D27   D(8,4,5,6)           -179.8563         estimate D2E/DX2                !
 ! D28   D(8,4,5,9)              0.2115         estimate D2E/DX2                !
 ! D29   D(4,5,6,1)              0.5126         estimate D2E/DX2                !
 ! D30   D(4,5,6,10)          -179.6511         estimate D2E/DX2                !
 ! D31   D(9,5,6,1)           -179.5553         estimate D2E/DX2                !
 ! D32   D(9,5,6,10)             0.281          estimate D2E/DX2                !
 ! D33   D(3,14,15,16)          78.4607         estimate D2E/DX2                !
 ! D34   D(3,14,15,17)         -38.1476         estimate D2E/DX2                !
 ! D35   D(3,14,15,18)        -159.7357         estimate D2E/DX2                !
 ! D36   D(25,14,15,16)        -99.3317         estimate D2E/DX2                !
 ! D37   D(25,14,15,17)        144.06           estimate D2E/DX2                !
 ! D38   D(25,14,15,18)         22.4719         estimate D2E/DX2                !
 ! D39   D(14,15,18,19)        -44.2883         estimate D2E/DX2                !
 ! D40   D(14,15,18,20)       -162.9279         estimate D2E/DX2                !
 ! D41   D(14,15,18,21)         73.7274         estimate D2E/DX2                !
 ! D42   D(16,15,18,19)         76.011          estimate D2E/DX2                !
 ! D43   D(16,15,18,20)        -42.6287         estimate D2E/DX2                !
 ! D44   D(16,15,18,21)       -165.9734         estimate D2E/DX2                !
 ! D45   D(17,15,18,19)       -167.2124         estimate D2E/DX2                !
 ! D46   D(17,15,18,20)         74.148          estimate D2E/DX2                !
 ! D47   D(17,15,18,21)        -49.1967         estimate D2E/DX2                !
 ! D48   D(15,18,20,23)        163.5439         estimate D2E/DX2                !
 ! D49   D(15,18,20,24)        -18.6552         estimate D2E/DX2                !
 ! D50   D(19,18,20,23)         43.8605         estimate D2E/DX2                !
 ! D51   D(19,18,20,24)       -138.3386         estimate D2E/DX2                !
 ! D52   D(21,18,20,23)        -73.6181         estimate D2E/DX2                !
 ! D53   D(21,18,20,24)        104.1828         estimate D2E/DX2                !
 ! D54   D(15,18,21,22)         71.4946         estimate D2E/DX2                !
 ! D55   D(15,18,21,27)       -146.2903         estimate D2E/DX2                !
 ! D56   D(19,18,21,22)       -169.3246         estimate D2E/DX2                !
 ! D57   D(19,18,21,27)        -27.1095         estimate D2E/DX2                !
 ! D58   D(20,18,21,22)        -51.7448         estimate D2E/DX2                !
 ! D59   D(20,18,21,27)         90.4703         estimate D2E/DX2                !
 ! D60   D(18,20,23,26)        177.1157         estimate D2E/DX2                !
 ! D61   D(24,20,23,26)         -0.7802         estimate D2E/DX2                !
 ! D62   D(18,21,27,33)        172.6553         estimate D2E/DX2                !
 ! D63   D(18,21,27,37)         55.4371         estimate D2E/DX2                !
 ! D64   D(22,21,27,33)        -45.3687         estimate D2E/DX2                !
 ! D65   D(22,21,27,37)       -162.5869         estimate D2E/DX2                !
 ! D66   D(20,23,26,28)        -60.9445         estimate D2E/DX2                !
 ! D67   D(20,23,26,29)        179.5041         estimate D2E/DX2                !
 ! D68   D(23,26,29,30)       -174.8043         estimate D2E/DX2                !
 ! D69   D(23,26,29,31)        -54.8043         estimate D2E/DX2                !
 ! D70   D(23,26,29,32)         65.1957         estimate D2E/DX2                !
 ! D71   D(28,26,29,30)         66.0521         estimate D2E/DX2                !
 ! D72   D(28,26,29,31)       -173.9479         estimate D2E/DX2                !
 ! D73   D(28,26,29,32)        -53.9479         estimate D2E/DX2                !
 ! D74   D(21,27,33,34)        161.9034         estimate D2E/DX2                !
 ! D75   D(21,27,33,35)        -78.0966         estimate D2E/DX2                !
 ! D76   D(21,27,33,36)         41.9034         estimate D2E/DX2                !
 ! D77   D(37,27,33,34)        -79.9764         estimate D2E/DX2                !
 ! D78   D(37,27,33,35)         40.0237         estimate D2E/DX2                !
 ! D79   D(37,27,33,36)        160.0237         estimate D2E/DX2                !
 --------------------------------------------------------------------------------
 Trust Radius=3.00D-01 FncErr=1.00D-07 GrdErr=1.00D-07
 Number of steps in this run=    187 maximum allowed number of steps=    222.
 GradGradGradGradGradGradGradGradGradGradGradGradGradGradGradGradGradGrad

                          Input orientation:                          
 ---------------------------------------------------------------------
 Center     Atomic      Atomic             Coordinates (Angstroms)
 Number     Number       Type             X           Y           Z
 ---------------------------------------------------------------------
      1          6           0        0.000000    0.000000    0.000000
      2          6           0        0.000000    0.000000    1.409772
      3          6           0        1.246219    0.000000    2.083192
      4          6           0        2.420232    0.022476    1.311277
      5          6           0        2.403582    0.034626   -0.061570
      6          6           0        1.169379    0.017643   -0.714430
      7          1           0       -0.942121   -0.008099   -0.509795
      8          1           0        3.367850    0.037953    1.804314
      9          1           0        3.316516    0.055527   -0.617526
     10          1           0        1.131050    0.020992   -1.785019
     11          7           0       -1.195051   -0.005070    2.060401
     12          1           0       -2.036186   -0.022329    1.544455
     13          1           0       -1.221535    0.028143    3.047651
     14          6           0        1.318221   -0.006135    3.552673
     15          6           0        2.662236   -0.087347    4.245156
     16          1           0        3.115347    0.896694    4.217109
     17          1           0        3.331158   -0.748361    3.719628
     18          6           0        2.519059   -0.572774    5.682373
     19          1           0        1.694220   -0.066048    6.150486
     20          6           0        3.763479   -0.261342    6.482630
     21          7           0        2.226744   -1.998538    5.703909
     22          1           0        2.993203   -2.579310    5.448245
     23          8           0        3.551293   -0.345335    7.804893
     24          8           0        4.856258   -0.002333    6.022140
     25          8           0        0.303719    0.095437    4.245470
     26          6           0        4.649098   -0.140279    8.719043
     27          6           0        1.367039   -2.536119    6.746628
     28          8           0        5.668617   -1.117492    8.494239
     29          6           0        4.040166   -0.297477   10.124778
     30          1           0        4.781054   -0.068531   10.862049
     31          1           0        3.212015    0.371594   10.231594
     32          1           0        3.704340   -1.304717   10.257402
     33          6           0        1.073681   -4.015180    6.433707
     34          1           0        0.721927   -4.503903    7.318195
     35          1           0        0.325966   -4.076835    5.670805
     36          1           0        1.969325   -4.492462    6.094703
     37          8           0        0.121272   -1.834112    6.734371
 ---------------------------------------------------------------------
                    Distance matrix (angstroms):
                    1          2          3          4          5
     1  C    0.000000
     2  C    1.409772   0.000000
     3  C    2.427499   1.416530   0.000000
     4  C    2.752721   2.422339   1.405227   0.000000
     5  C    2.404619   2.818377   2.437354   1.373002   0.000000
     6  C    1.370463   2.424869   2.798732   2.380786   1.396341
     7  H    1.071236   2.138315   3.393004   3.823957   3.375863
     8  H    3.820917   3.391094   2.140218   1.068319   2.100321
     9  H    3.373974   3.887454   3.403394   2.127134   1.069099
    10  H    2.113293   3.389160   3.869982   3.353959   2.142382
    11  N    2.381896   1.360695   2.441382   3.692183   4.177858
    12  H    2.555757   2.040758   3.326398   4.462739   4.721663
    13  H    3.283461   2.043426   2.649676   4.034538   4.775853
    14  C    3.789358   2.515904   1.471257   2.497819   3.773913
    15  C    5.011635   3.890313   2.585889   2.945891   4.316210
    16  H    5.319159   4.288425   2.975114   3.113086   4.422315
    17  H    5.048989   4.122146   2.754076   2.687774   3.971262
    18  C    6.242042   4.992879   3.860349   4.412547   5.777123
    19  H    6.379907   5.034790   4.092425   4.894167   6.253237
    20  C    7.500438   6.321864   5.075426   5.350491   6.690551
    21  N    6.441050   5.233751   4.250314   4.839127   6.116026
    22  H    6.730191   5.649899   4.585670   4.920578   6.126856
    23  O    8.581800   7.323149   6.178227   6.601639   7.958822
    24  O    7.736240   6.697551   5.343004   5.303496   6.559612
    25  O    4.257390   2.853513   2.360690   3.618623   4.792047
    26  C    9.882080   8.663673   7.458806   7.737527   9.064883
    27  C    7.336053   6.064876   5.309814   6.099070   7.350830
    28  O   10.272979   9.141754   7.868158   7.965329   9.229826
    29  C   10.905162   9.610555   8.518317   8.966847  10.322324
    30  H   11.867909  10.592861   9.464041   9.838648  11.179824
    31  H   10.730360   9.395726   8.390404   8.962190  10.330360
    32  H   10.983566   9.680133   8.634950   9.134743  10.486515
    33  C    7.659442   6.520306   5.922704   6.659967   7.769053
    34  H    8.623358   7.464301   6.925697   7.710733   8.825369
    35  H    6.991771   5.906203   5.508032   6.340014   7.353959
    36  H    7.823418   6.782996   6.066079   6.593114   7.653940
    37  O    6.980718   5.632941   5.124737   6.175927   7.408504
                    6          7          8          9         10
     6  C    0.000000
     7  H    2.121549   0.000000
     8  H    3.343315   4.892144   0.000000
     9  H    2.149656   4.260474   2.422448   0.000000
    10  H    1.071281   2.434149   4.229288   2.478002   0.000000
    11  N    3.645646   2.582613   4.570284   5.246828   4.494295
    12  H    3.921710   2.327472   5.410617   5.773357   4.595505
    13  H    4.457559   3.568586   4.754834   5.833368   5.374887
    14  C    4.269764   4.648956   2.694379   4.624667   5.341042
    15  C    5.180457   5.967179   2.543875   4.908582   6.222482
    16  H    5.373974   6.294864   2.573475   4.911388   6.381993
    17  H    4.992085   6.057798   2.070764   4.411050   5.977752
    18  C    6.564245   7.116288   4.016563   6.381178   7.618469
    19  H    6.885457   7.163308   4.658440   6.960791   7.955940
    20  C    7.655381   8.432129   4.704545   7.121264   8.681211
    21  N    6.810145   7.253528   4.544916   6.735527   7.833460
    22  H    6.931742   7.589211   4.502072   6.621214   7.908811
    23  O    8.853481   9.457195   6.015605   8.435221   9.897383
    24  O    7.679508   8.734266   4.472922   6.816107   8.650402
    25  O    5.035476   4.916846   3.918092   5.720775   6.087431
    26  C   10.056032  10.791230   7.034688   9.433220  11.078718
    27  C    7.888482   8.023638   5.920773   8.046605   8.909742
    28  O   10.311704  11.225205   7.168240   9.483281  11.293750
    29  C   11.217358  11.747385   8.354318  10.772436  12.264079
    30  H   12.127096  12.730954   9.167935  11.573284  13.163543
    31  H   11.140604  11.522953   8.435321  10.854226  12.200505
    32  H   11.338243  11.798447   8.565669  10.966528  12.385445
    33  C    8.207843   8.266340   6.566763   8.445168   9.156497
    34  H    9.228632   9.179256   7.617890   9.512937  10.174015
    35  H    7.631993   7.507494   6.413602   8.097093   8.545739
    36  H    8.206415   8.497378   6.394370   8.219073   9.119430
    37  O    7.746751   7.546063   6.192766   8.235940   8.777304
                   11         12         13         14         15
    11  N    0.000000
    12  H    0.986918   0.000000
    13  H    0.988163   1.710497   0.000000
    14  C    2.922912   3.909636   2.589708   0.000000
    15  C    4.433801   5.419704   4.065838   1.514102   0.000000
    16  H    4.903478   5.875881   4.574993   2.118074   1.083713
    17  H    4.877713   5.836684   4.667068   2.151903   1.077300
    18  C    5.218771   6.178641   4.614640   2.509723   1.523723
    19  H    5.008033   5.927340   4.258883   2.625566   2.137239
    20  C    6.648970   7.620946   6.060796   3.824796   2.499860
    21  N    5.381240   6.275271   4.801434   3.069674   2.443412
    22  H    5.970399   6.860939   5.506875   3.608321   2.786904
    23  O    7.459407   8.397460   6.749128   4.814877   3.678139
    24  O    7.232823   8.219236   6.766689   4.314624   2.824647
    25  O    2.651592   3.575543   1.940541   1.232680   2.365590
    26  C    8.860580   9.807224   8.164398   6.148505   4.895517
    27  C    5.910265   6.705496   5.192165   4.074868   3.732476
    28  O    9.473209  10.433737   8.857313   6.676835   5.306055
    29  C    9.619104  10.517590   8.824809   7.119440   6.042582
    30  H   10.638931  11.545321   9.854199   8.088391   6.947878
    31  H    9.291528  10.157025   8.448867   6.952490   6.029123
    32  H    9.637631  10.512545   8.832965   7.234174   6.222144
    33  C    6.352475   7.036968   5.751683   4.942935   4.768766
    34  H    7.180438   7.812027   6.523345   5.896155   5.719644
    35  H    5.650467   6.248643   5.111412   4.694854   4.838041
    36  H    6.813630   7.531996   6.316802   5.197402   4.827627
    37  O    5.188843   5.905286   4.343158   3.859714   3.962812
                   16         17         18         19         20
    16  H    0.000000
    17  H    1.732128   0.000000
    18  C    2.159142   2.131362   0.000000
    19  H    2.585425   3.009018   1.075295   0.000000
    20  C    2.625587   2.838709   1.511947   2.104826   0.000000
    21  N    3.373805   2.592305   1.455580   2.053662   2.446591
    22  H    3.689609   2.540610   2.075046   2.914959   2.652593
    23  O    3.821633   4.110995   2.371145   2.502756   1.341811
    24  O    2.664049   2.860778   2.429680   3.165283   1.213797
    25  O    2.923708   3.186517   2.723770   2.364034   4.135470
    26  C    4.867763   5.205851   3.734366   3.915904   2.408427
    27  C    4.608606   4.026980   2.512869   2.561968   3.314698
    28  O    5.373078   5.328872   4.257115   4.732287   2.899847
    29  C    6.097695   6.460026   4.703671   4.620824   3.652821
    30  H    6.918198   7.319737   5.674498   5.632706   4.500216
    31  H    6.038137   6.608645   4.697598   4.376148   3.841803
    32  H    6.455871   6.572008   4.782419   4.737262   3.916763
    33  C    5.762657   4.809837   3.808383   4.007609   4.618301
    34  H    6.671705   5.819095   4.621620   4.690784   5.286637
    35  H    5.884715   4.890502   4.133791   4.264812   5.199379
    36  H    5.820802   4.638304   3.979470   4.435306   4.612141
    37  O    4.770576   4.535515   2.906382   2.437445   3.975255
                   21         22         23         24         25
    21  N    0.000000
    22  H    0.995048   0.000000
    23  O    2.983562   3.294829   0.000000
    24  O    3.316693   3.231275   2.235798   0.000000
    25  O    3.195278   3.979229   4.838441   4.887916   0.000000
    26  C    4.290916   4.403292   1.443223   2.708363   6.241053
    27  C    1.454423   2.081363   3.269622   4.372597   3.783058
    28  O    4.517596   4.309621   2.356795   2.831038   6.950206
    29  C    5.072099   5.307811   2.371319   4.193418   6.977226
    30  H    6.070900   6.229743   3.306831   4.840946   7.990778
    31  H    5.204634   5.624601   2.553032   4.534629   6.660940
    32  H    4.837249   5.025764   2.637923   4.578271   7.047552
    33  C    2.434955   2.591799   4.635350   5.529938   4.720000
    34  H    3.338750   3.515604   5.053303   6.247927   5.547114
    35  H    2.816624   3.066964   5.374119   6.103159   4.409073
    36  H    2.537448   2.264153   4.756683   5.338624   5.219457
    37  O    2.349872   3.233795   3.889412   5.126674   3.154533
                   26         27         28         29         30
    26  C    0.000000
    27  C    4.516900   0.000000
    28  O    1.430000   4.854917   0.000000
    29  C    1.540000   4.854794   2.446004   0.000000
    30  H    2.148263   5.889073   2.737629   1.070000   0.000000
    31  H    2.148263   4.899359   3.357182   1.070000   1.747303
    32  H    2.148263   4.393730   2.646164   1.070000   1.747303
    33  C    5.746410   1.540000   5.809976   6.020411   6.995060
    34  H    6.035417   2.148263   6.109059   6.048275   6.979107
    35  H    6.593762   2.148263   6.728552   6.922189   7.928639
    36  H    5.745419   2.148263   5.552743   6.174770   7.085518
    37  O    5.225821   1.430000   5.863763   5.404983   6.470593
                   31         32         33         34         35
    31  H    0.000000
    32  H    1.747303   0.000000
    33  C    6.183866   5.374720   0.000000
    34  H    6.201523   5.269584   1.070000   0.000000
    35  H    6.994182   6.335213   1.070000   1.747303   0.000000
    36  H    6.505166   5.522686   1.070000   1.747303   1.747303
    37  O    5.162209   5.052761   2.398862   2.798110   2.490557
                   36         37
    36  H    0.000000
    37  O    3.300197   0.000000
 Stoichiometry    C14H16N2O5
 Framework group  C1[X(C14H16N2O5)]
 Deg. of freedom   105
 Full point group                 C1      NOp   1
 Largest Abelian subgroup         C1      NOp   1
 Largest concise Abelian subgroup C1      NOp   1
                         Standard orientation:                         
 ---------------------------------------------------------------------
 Center     Atomic      Atomic             Coordinates (Angstroms)
 Number     Number       Type             X           Y           Z
 ---------------------------------------------------------------------
      1          6           0       -5.231358    0.030217   -0.096751
      2          6           0       -3.943538    0.434651   -0.503458
      3          6           0       -2.842039   -0.391986   -0.171908
      4          6           0       -3.091609   -1.585363    0.526826
      5          6           0       -4.353593   -1.971630    0.905413
      6          6           0       -5.429668   -1.140470    0.587598
      7          1           0       -6.063782    0.658973   -0.340235
      8          1           0       -2.273197   -2.227101    0.771123
      9          1           0       -4.507591   -2.888618    1.433039
     10          1           0       -6.422989   -1.417901    0.877403
     11          7           0       -3.814974    1.601782   -1.191039
     12          1           0       -4.612554    2.150696   -1.382266
     13          1           0       -2.927283    1.890136   -1.515574
     14          6           0       -1.470871   -0.026290   -0.560188
     15          6           0       -0.304450   -0.887043   -0.123070
     16          1           0       -0.266448   -1.755960   -0.769578
     17          1           0       -0.447430   -1.256010    0.878925
     18          6           0        1.008408   -0.115815   -0.180883
     19          1           0        1.055843    0.441112   -1.099492
     20          6           0        2.189245   -1.059693   -0.154359
     21          7           0        1.078024    0.839636    0.915009
     22          1           0        1.210396    0.428306    1.811338
     23          8           0        3.323982   -0.464895   -0.553158
     24          8           0        2.165247   -2.215052    0.216955
     25          8           0       -1.245596    0.952078   -1.275412
     26          6           0        4.563880   -1.203141   -0.529923
     27          6           0        1.756887    2.110024    0.713503
     28          8           0        4.868804   -1.615270    0.805019
     29          6           0        5.628461   -0.223266   -1.057286
     30          1           0        6.564747   -0.732075   -1.154154
     31          1           0        5.325884    0.151873   -2.012597
     32          1           0        5.734429    0.591227   -0.371522
     33          6           0        1.526703    2.996924    1.951252
     34          1           0        2.253629    3.781913    1.967724
     35          1           0        0.545094    3.420652    1.908846
     36          1           0        1.621453    2.404429    2.837183
     37          8           0        1.178775    2.776351   -0.411973
 ---------------------------------------------------------------------
 Rotational constants (GHZ):      0.5788114      0.1463360      0.1290375
 Standard basis: 6-31G(d) (6D, 7F)
 There are   347 symmetry adapted cartesian basis functions of A   symmetry.
 There are   347 symmetry adapted basis functions of A   symmetry.
   347 basis functions,   652 primitive gaussians,   347 cartesian basis functions
    77 alpha electrons       77 beta electrons
       nuclear repulsion energy      1638.7055911703 Hartrees.
 NAtoms=   37 NActive=   37 NUniq=   37 SFac= 1.00D+00 NAtFMM=   60 NAOKFM=F Big=F
 Integral buffers will be    131072 words long.
 Raffenetti 1 integral format.
 Two-electron integral symmetry is turned on.
 One-electron integrals computed using PRISM.
 NBasis=   347 RedAO= T EigKep=  3.54D-04  NBF=   347
 NBsUse=   347 1.00D-06 EigRej= -1.00D+00 NBFU=   347
 ExpMin= 1.61D-01 ExpMax= 5.48D+03 ExpMxC= 8.25D+02 IAcc=1 IRadAn=         1 AccDes= 0.00D+00
 Harris functional with IExCor=  205 and IRadAn=       1 diagonalized for initial guess.
 HarFok:  IExCor=  205 AccDes= 0.00D+00 IRadAn=         1 IDoV= 1 UseB2=F ITyADJ=14
 ICtDFT=  3500011 ScaDFX=  1.000000  1.000000  1.000000  1.000000
 FoFCou: FMM=F IPFlag=           0 FMFlag=      100000 FMFlg1=           0
         NFxFlg=           0 DoJE=T BraDBF=F KetDBF=T FulRan=T
         wScrn=  0.000000 ICntrl=     500 IOpCl=  0 I1Cent=   200000004 NGrid=           0
         NMat0=    1 NMatS0=      1 NMatT0=    0 NMatD0=    1 NMtDS0=    0 NMtDT0=    0
 Petite list used in FoFCou.
 Requested convergence on RMS density matrix=1.00D-08 within 128 cycles.
 Requested convergence on MAX density matrix=1.00D-06.
 Requested convergence on             energy=1.00D-06.
 No special actions if energy rises.
 Integral accuracy reduced to 1.0D-05 until final iterations.
 Initial convergence to 1.0D-05 achieved.  Increase integral accuracy.
 SCF Done:  E(RHF) =  -1022.45594381     A.U. after   21 cycles
            NFock= 21  Conv=0.96D-08     -V/T= 2.0029

 **********************************************************************

            Population analysis using the SCF density.

 **********************************************************************

 Orbital symmetries:
 BldTbl:  Degeneracy threshold= 1.00D-02
       Occupied  (A) (A) (A) (A) (A) (A) (A) (A) (A) (A) (A) (A)
                 (A) (A) (A) (A) (A) (A) (A) (A) (A) (A) (A) (A)
                 (A) (A) (A) (A) (A) (A) (A) (A) (A) (A) (A) (A)
                 (A) (A) (A) (A) (A) (A) (A) (A) (A) (A) (A) (A)
                 (A) (A) (A) (A) (A) (A) (A) (A) (A) (A) (A) (A)
                 (A) (A) (A) (A) (A) (A) (A) (A) (A) (A) (A) (A)
                 (A) (A) (A) (A) (A)
       Virtual   (A) (A) (A) (A) (A) (A) (A) (A) (A) (A) (A) (A)
                 (A) (A) (A) (A) (A) (A) (A) (A) (A) (A) (A) (A)
                 (A) (A) (A) (A) (A) (A) (A) (A) (A) (A) (A) (A)
                 (A) (A) (A) (A) (A) (A) (A) (A) (A) (A) (A) (A)
                 (A) (A) (A) (A) (A) (A) (A) (A) (A) (A) (A) (A)
                 (A) (A) (A) (A) (A) (A) (A) (A) (A) (A) (A) (A)
                 (A) (A) (A) (A) (A) (A) (A) (A) (A) (A) (A) (A)
                 (A) (A) (A) (A) (A) (A) (A) (A) (A) (A) (A) (A)
                 (A) (A) (A) (A) (A) (A) (A) (A) (A) (A) (A) (A)
                 (A) (A) (A) (A) (A) (A) (A) (A) (A) (A) (A) (A)
                 (A) (A) (A) (A) (A) (A) (A) (A) (A) (A) (A) (A)
                 (A) (A) (A) (A) (A) (A) (A) (A) (A) (A) (A) (A)
                 (A) (A) (A) (A) (A) (A) (A) (A) (A) (A) (A) (A)
                 (A) (A) (A) (A) (A) (A) (A) (A) (A) (A) (A) (A)
                 (A) (A) (A) (A) (A) (A) (A) (A) (A) (A) (A) (A)
                 (A) (A) (A) (A) (A) (A) (A) (A) (A) (A) (A) (A)
                 (A) (A) (A) (A) (A) (A) (A) (A) (A) (A) (A) (A)
                 (A) (A) (A) (A) (A) (A) (A) (A) (A) (A) (A) (A)
                 (A) (A) (A) (A) (A) (A) (A) (A) (A) (A) (A) (A)
                 (A) (A) (A) (A) (A) (A) (A) (A) (A) (A) (A) (A)
                 (A) (A) (A) (A) (A) (A) (A) (A) (A) (A) (A) (A)
                 (A) (A) (A) (A) (A) (A) (A) (A) (A) (A) (A) (A)
                 (A) (A) (A) (A) (A) (A)
 The electronic state is 1-A.
 Alpha  occ. eigenvalues --  -20.65891 -20.60248 -20.57297 -20.54469 -20.54268
 Alpha  occ. eigenvalues --  -15.61830 -15.56040 -11.44334 -11.40445 -11.38469
 Alpha  occ. eigenvalues --  -11.33556 -11.29974 -11.29409 -11.26840 -11.24839
 Alpha  occ. eigenvalues --  -11.24790 -11.24749 -11.24645 -11.23247 -11.22554
 Alpha  occ. eigenvalues --  -11.22001  -1.49990  -1.38370  -1.37622  -1.29937
 Alpha  occ. eigenvalues --   -1.29216  -1.23318  -1.21794  -1.14042  -1.07967
 Alpha  occ. eigenvalues --   -1.05189  -1.03792  -1.00360  -0.99713  -0.95593
 Alpha  occ. eigenvalues --   -0.88279  -0.85478  -0.82579  -0.80289  -0.77034
 Alpha  occ. eigenvalues --   -0.75519  -0.73954  -0.71848  -0.69628  -0.69244
 Alpha  occ. eigenvalues --   -0.68319  -0.67139  -0.65533  -0.65239  -0.63119
 Alpha  occ. eigenvalues --   -0.62774  -0.61808  -0.61117  -0.60827  -0.60492
 Alpha  occ. eigenvalues --   -0.59720  -0.58818  -0.57673  -0.56387  -0.55285
 Alpha  occ. eigenvalues --   -0.53898  -0.53661  -0.52856  -0.52198  -0.50535
 Alpha  occ. eigenvalues --   -0.50322  -0.49441  -0.48848  -0.47883  -0.45268
 Alpha  occ. eigenvalues --   -0.44679  -0.43699  -0.42046  -0.40840  -0.37814
 Alpha  occ. eigenvalues --   -0.34780  -0.28758
 Alpha virt. eigenvalues --    0.02022   0.06081   0.09326   0.15931   0.16423
 Alpha virt. eigenvalues --    0.21423   0.21803   0.23746   0.24681   0.25092
 Alpha virt. eigenvalues --    0.26028   0.28151   0.28606   0.29449   0.29914
 Alpha virt. eigenvalues --    0.30890   0.31418   0.31834   0.32105   0.32804
 Alpha virt. eigenvalues --    0.33491   0.35364   0.35698   0.36412   0.37141
 Alpha virt. eigenvalues --    0.39139   0.39311   0.40735   0.41300   0.42955
 Alpha virt. eigenvalues --    0.43629   0.45166   0.46920   0.47425   0.47909
 Alpha virt. eigenvalues --    0.51076   0.52207   0.53272   0.54757   0.57709
 Alpha virt. eigenvalues --    0.60453   0.61579   0.68686   0.70361   0.70664
 Alpha virt. eigenvalues --    0.72617   0.73171   0.73379   0.73488   0.74238
 Alpha virt. eigenvalues --    0.74628   0.75128   0.76066   0.77099   0.77619
 Alpha virt. eigenvalues --    0.78257   0.79064   0.79737   0.80941   0.81121
 Alpha virt. eigenvalues --    0.82082   0.82659   0.83491   0.83659   0.85055
 Alpha virt. eigenvalues --    0.85606   0.85758   0.87592   0.88737   0.89924
 Alpha virt. eigenvalues --    0.90940   0.91603   0.92985   0.93434   0.94677
 Alpha virt. eigenvalues --    0.96973   0.98907   0.99564   1.00081   1.01211
 Alpha virt. eigenvalues --    1.04143   1.04365   1.07940   1.08421   1.09132
 Alpha virt. eigenvalues --    1.09789   1.10259   1.10961   1.11320   1.12147
 Alpha virt. eigenvalues --    1.12936   1.13663   1.15270   1.15792   1.16221
 Alpha virt. eigenvalues --    1.17242   1.17644   1.18009   1.19214   1.19915
 Alpha virt. eigenvalues --    1.20222   1.21064   1.21324   1.21960   1.23126
 Alpha virt. eigenvalues --    1.23718   1.24530   1.25949   1.26508   1.27231
 Alpha virt. eigenvalues --    1.28037   1.29903   1.30574   1.31836   1.33256
 Alpha virt. eigenvalues --    1.33628   1.35874   1.37053   1.38438   1.41048
 Alpha virt. eigenvalues --    1.41335   1.42825   1.45764   1.46475   1.47072
 Alpha virt. eigenvalues --    1.48828   1.50120   1.50887   1.53697   1.55352
 Alpha virt. eigenvalues --    1.56792   1.57685   1.59097   1.59818   1.61849
 Alpha virt. eigenvalues --    1.63752   1.64952   1.66168   1.67029   1.69837
 Alpha virt. eigenvalues --    1.71377   1.71952   1.72931   1.75517   1.75861
 Alpha virt. eigenvalues --    1.77824   1.78557   1.81428   1.82371   1.85364
 Alpha virt. eigenvalues --    1.88324   1.91047   1.93119   1.93603   1.96071
 Alpha virt. eigenvalues --    1.96937   1.98936   2.01668   2.04287   2.04846
 Alpha virt. eigenvalues --    2.05578   2.08119   2.08313   2.08735   2.09363
 Alpha virt. eigenvalues --    2.10170   2.10909   2.11932   2.14043   2.14519
 Alpha virt. eigenvalues --    2.15939   2.16255   2.17045   2.17923   2.20221
 Alpha virt. eigenvalues --    2.20470   2.21460   2.21922   2.23889   2.25586
 Alpha virt. eigenvalues --    2.26780   2.27770   2.28952   2.29827   2.31846
 Alpha virt. eigenvalues --    2.32117   2.33841   2.35181   2.35537   2.36463
 Alpha virt. eigenvalues --    2.37782   2.39271   2.40443   2.42268   2.45765
 Alpha virt. eigenvalues --    2.46123   2.47867   2.49706   2.52212   2.52688
 Alpha virt. eigenvalues --    2.53832   2.56688   2.56819   2.57700   2.60163
 Alpha virt. eigenvalues --    2.61733   2.62762   2.63831   2.64994   2.66596
 Alpha virt. eigenvalues --    2.69218   2.70583   2.72291   2.74487   2.76161
 Alpha virt. eigenvalues --    2.79935   2.81889   2.82383   2.84104   2.85039
 Alpha virt. eigenvalues --    2.86551   2.89182   2.89740   2.91590   2.93388
 Alpha virt. eigenvalues --    2.94609   2.95051   2.98940   3.01582   3.02665
 Alpha virt. eigenvalues --    3.03951   3.06849   3.08961   3.11705   3.13835
 Alpha virt. eigenvalues --    3.17627   3.19620   3.21629   3.23226   3.24840
 Alpha virt. eigenvalues --    3.28430   3.30024   3.30858   3.37068   3.41180
 Alpha virt. eigenvalues --    3.44779   3.53999   3.64759   3.83505   4.05322
 Alpha virt. eigenvalues --    4.13574   4.31267   4.32580   4.41000   4.47649
 Alpha virt. eigenvalues --    4.52241   4.55091   4.56623   4.58849   4.61912
 Alpha virt. eigenvalues --    4.62906   4.74421   4.77444   4.78629   4.81724
 Alpha virt. eigenvalues --    4.83294   4.86575   5.03099   5.08018   5.19192
          Condensed to atoms (all electrons):
               1          2          3          4          5          6
     1  C    5.014049   0.529273  -0.035867  -0.040806  -0.051501   0.571253
     2  C    0.529273   4.385991   0.551286  -0.034270  -0.027688  -0.028788
     3  C   -0.035867   0.551286   5.116015   0.503023  -0.043964  -0.030719
     4  C   -0.040806  -0.034270   0.503023   4.913318   0.568545  -0.042529
     5  C   -0.051501  -0.027688  -0.043964   0.568545   4.944638   0.527417
     6  C    0.571253  -0.028788  -0.030719  -0.042529   0.527417   4.828655
     7  H    0.380483  -0.036511   0.002715   0.000249   0.002510  -0.025701
     8  H    0.000385   0.001425  -0.034130   0.380870  -0.025646   0.002800
     9  H    0.002495   0.000400   0.001510  -0.029134   0.386324  -0.029596
    10  H   -0.029652   0.001668   0.000442   0.002856  -0.029016   0.380656
    11  N   -0.074033   0.339392  -0.060298   0.003949   0.000173   0.003113
    12  H   -0.001227  -0.032309   0.002880  -0.000078   0.000003   0.000095
    13  H    0.003008  -0.011701  -0.006600  -0.000100   0.000013  -0.000096
    14  C    0.004077  -0.037135   0.380276  -0.037241   0.002578  -0.000388
    15  C   -0.000013   0.003675  -0.105348  -0.004122   0.000044  -0.000027
    16  H    0.000002  -0.000186  -0.002128  -0.000613   0.000011   0.000000
    17  H   -0.000022  -0.000010   0.006023  -0.003582   0.000043   0.000006
    18  C    0.000001  -0.000079   0.003486   0.000262   0.000002   0.000000
    19  H    0.000000  -0.000011   0.000656  -0.000027   0.000000   0.000000
    20  C    0.000000   0.000001  -0.000103  -0.000003   0.000000   0.000000
    21  N    0.000000   0.000004  -0.000917  -0.000018   0.000000   0.000000
    22  H    0.000000   0.000000   0.000028  -0.000005   0.000000   0.000000
    23  O    0.000000   0.000000   0.000000   0.000000   0.000000   0.000000
    24  O    0.000000   0.000000  -0.000006   0.000004   0.000000   0.000000
    25  O    0.000388  -0.001321  -0.070267   0.002980  -0.000035  -0.000012
    26  C    0.000000   0.000000   0.000000   0.000000   0.000000   0.000000
    27  C    0.000000   0.000001   0.000006   0.000000   0.000000   0.000000
    28  O    0.000000   0.000000   0.000000   0.000000   0.000000   0.000000
    29  C    0.000000   0.000000   0.000000   0.000000   0.000000   0.000000
    30  H    0.000000   0.000000   0.000000   0.000000   0.000000   0.000000
    31  H    0.000000   0.000000   0.000000   0.000000   0.000000   0.000000
    32  H    0.000000   0.000000   0.000000   0.000000   0.000000   0.000000
    33  C    0.000000   0.000000  -0.000003   0.000000   0.000000   0.000000
    34  H    0.000000   0.000000   0.000000   0.000000   0.000000   0.000000
    35  H    0.000000   0.000000   0.000000   0.000000   0.000000   0.000000
    36  H    0.000000   0.000000   0.000000   0.000000   0.000000   0.000000
    37  O    0.000000   0.000002  -0.000010   0.000000   0.000000   0.000000
               7          8          9         10         11         12
     1  C    0.380483   0.000385   0.002495  -0.029652  -0.074033  -0.001227
     2  C   -0.036511   0.001425   0.000400   0.001668   0.339392  -0.032309
     3  C    0.002715  -0.034130   0.001510   0.000442  -0.060298   0.002880
     4  C    0.000249   0.380870  -0.029134   0.002856   0.003949  -0.000078
     5  C    0.002510  -0.025646   0.386324  -0.029016   0.000173   0.000003
     6  C   -0.025701   0.002800  -0.029596   0.380656   0.003113   0.000095
     7  H    0.480064   0.000011  -0.000119  -0.002001  -0.002847   0.004073
     8  H    0.000011   0.462904  -0.001534  -0.000131  -0.000066   0.000002
     9  H   -0.000119  -0.001534   0.469874  -0.001350   0.000004   0.000000
    10  H   -0.002001  -0.000131  -0.001350   0.466706  -0.000097  -0.000011
    11  N   -0.002847  -0.000066   0.000004  -0.000097   7.154221   0.334685
    12  H    0.004073   0.000002   0.000000  -0.000011   0.334685   0.322074
    13  H    0.000007  -0.000004   0.000000   0.000001   0.300488  -0.011633
    14  C   -0.000087  -0.002956  -0.000081   0.000006  -0.005989  -0.000037
    15  C    0.000002  -0.000496   0.000006   0.000000  -0.000270   0.000008
    16  H    0.000000  -0.000686  -0.000001   0.000000   0.000001   0.000000
    17  H    0.000000  -0.000740  -0.000005   0.000000   0.000010   0.000000
    18  C    0.000000   0.000264   0.000000   0.000000   0.000006   0.000000
    19  H    0.000000  -0.000005   0.000000   0.000000   0.000004   0.000000
    20  C    0.000000  -0.000006   0.000000   0.000000   0.000000   0.000000
    21  N    0.000000  -0.000024   0.000000   0.000000  -0.000002   0.000000
    22  H    0.000000  -0.000004   0.000000   0.000000   0.000000   0.000000
    23  O    0.000000   0.000000   0.000000   0.000000   0.000000   0.000000
    24  O    0.000000  -0.000002   0.000000   0.000000   0.000000   0.000000
    25  O    0.000005   0.000051   0.000000   0.000000  -0.026838   0.000701
    26  C    0.000000   0.000000   0.000000   0.000000   0.000000   0.000000
    27  C    0.000000   0.000000   0.000000   0.000000   0.000000   0.000000
    28  O    0.000000   0.000000   0.000000   0.000000   0.000000   0.000000
    29  C    0.000000   0.000000   0.000000   0.000000   0.000000   0.000000
    30  H    0.000000   0.000000   0.000000   0.000000   0.000000   0.000000
    31  H    0.000000   0.000000   0.000000   0.000000   0.000000   0.000000
    32  H    0.000000   0.000000   0.000000   0.000000   0.000000   0.000000
    33  C    0.000000   0.000000   0.000000   0.000000   0.000000   0.000000
    34  H    0.000000   0.000000   0.000000   0.000000   0.000000   0.000000
    35  H    0.000000   0.000000   0.000000   0.000000   0.000000   0.000000
    36  H    0.000000   0.000000   0.000000   0.000000   0.000000   0.000000
    37  O    0.000000   0.000000   0.000000   0.000000  -0.000001   0.000000
              13         14         15         16         17         18
     1  C    0.003008   0.004077  -0.000013   0.000002  -0.000022   0.000001
     2  C   -0.011701  -0.037135   0.003675  -0.000186  -0.000010  -0.000079
     3  C   -0.006600   0.380276  -0.105348  -0.002128   0.006023   0.003486
     4  C   -0.000100  -0.037241  -0.004122  -0.000613  -0.003582   0.000262
     5  C    0.000013   0.002578   0.000044   0.000011   0.000043   0.000002
     6  C   -0.000096  -0.000388  -0.000027   0.000000   0.000006   0.000000
     7  H    0.000007  -0.000087   0.000002   0.000000   0.000000   0.000000
     8  H   -0.000004  -0.002956  -0.000496  -0.000686  -0.000740   0.000264
     9  H    0.000000  -0.000081   0.000006  -0.000001  -0.000005   0.000000
    10  H    0.000001   0.000006   0.000000   0.000000   0.000000   0.000000
    11  N    0.300488  -0.005989  -0.000270   0.000001   0.000010   0.000006
    12  H   -0.011633  -0.000037   0.000008   0.000000   0.000000   0.000000
    13  H    0.243728  -0.001079   0.000499  -0.000011  -0.000016   0.000008
    14  C   -0.001079   4.354405   0.330598  -0.025969  -0.036695  -0.033644
    15  C    0.000499   0.330598   5.331584   0.386826   0.387026   0.312942
    16  H   -0.000011  -0.025969   0.386826   0.458464  -0.018297  -0.033115
    17  H   -0.000016  -0.036695   0.387026  -0.018297   0.496996  -0.033625
    18  C    0.000008  -0.033644   0.312942  -0.033115  -0.033625   5.093027
    19  H   -0.000011  -0.002470  -0.033207   0.000025   0.003071   0.389922
    20  C    0.000000   0.003069  -0.058742   0.001354  -0.004548   0.360749
    21  N   -0.000004  -0.003132  -0.061103   0.003138  -0.001053   0.226160
    22  H    0.000000   0.000357  -0.001021  -0.000151   0.002503  -0.030080
    23  O    0.000000  -0.000009   0.002490   0.000037  -0.000008  -0.089571
    24  O    0.000000   0.000485   0.006037   0.001584   0.001663  -0.067748
    25  O    0.027651   0.521420  -0.084418   0.000591   0.001927  -0.003613
    26  C    0.000000   0.000001  -0.000100  -0.000002  -0.000003   0.003400
    27  C    0.000001  -0.000162   0.004060  -0.000071  -0.000066  -0.032272
    28  O    0.000000   0.000000   0.000007   0.000000  -0.000001  -0.000405
    29  C    0.000000   0.000000   0.000002   0.000000   0.000000  -0.000166
    30  H    0.000000   0.000000   0.000000   0.000000   0.000000   0.000003
    31  H    0.000000   0.000000   0.000000   0.000000   0.000000  -0.000005
    32  H    0.000000   0.000000   0.000000   0.000000   0.000000  -0.000003
    33  C    0.000000  -0.000035  -0.000194   0.000002  -0.000005   0.004638
    34  H    0.000000   0.000000   0.000001   0.000000   0.000000  -0.000084
    35  H    0.000000   0.000010   0.000019   0.000000  -0.000001  -0.000074
    36  H    0.000000   0.000003   0.000002   0.000000  -0.000003  -0.000193
    37  O    0.000008   0.000098   0.000059  -0.000008  -0.000008  -0.001211
              19         20         21         22         23         24
     1  C    0.000000   0.000000   0.000000   0.000000   0.000000   0.000000
     2  C   -0.000011   0.000001   0.000004   0.000000   0.000000   0.000000
     3  C    0.000656  -0.000103  -0.000917   0.000028   0.000000  -0.000006
     4  C   -0.000027  -0.000003  -0.000018  -0.000005   0.000000   0.000004
     5  C    0.000000   0.000000   0.000000   0.000000   0.000000   0.000000
     6  C    0.000000   0.000000   0.000000   0.000000   0.000000   0.000000
     7  H    0.000000   0.000000   0.000000   0.000000   0.000000   0.000000
     8  H   -0.000005  -0.000006  -0.000024  -0.000004   0.000000  -0.000002
     9  H    0.000000   0.000000   0.000000   0.000000   0.000000   0.000000
    10  H    0.000000   0.000000   0.000000   0.000000   0.000000   0.000000
    11  N    0.000004   0.000000  -0.000002   0.000000   0.000000   0.000000
    12  H    0.000000   0.000000   0.000000   0.000000   0.000000   0.000000
    13  H   -0.000011   0.000000  -0.000004   0.000000   0.000000   0.000000
    14  C   -0.002470   0.003069  -0.003132   0.000357  -0.000009   0.000485
    15  C   -0.033207  -0.058742  -0.061103  -0.001021   0.002490   0.006037
    16  H    0.000025   0.001354   0.003138  -0.000151   0.000037   0.001584
    17  H    0.003071  -0.004548  -0.001053   0.002503  -0.000008   0.001663
    18  C    0.389922   0.360749   0.226160  -0.030080  -0.089571  -0.067748
    19  H    0.387159  -0.041437  -0.027524   0.003152   0.003101   0.001475
    20  C   -0.041437   4.186317  -0.052787  -0.001318   0.239800   0.559825
    21  N   -0.027524  -0.052787   7.228914   0.303790   0.003080  -0.000276
    22  H    0.003152  -0.001318   0.303790   0.351483   0.000031   0.001102
    23  O    0.003101   0.239800   0.003080   0.000031   8.496254  -0.080306
    24  O    0.001475   0.559825  -0.000276   0.001102  -0.080306   8.120131
    25  O    0.009158   0.000176   0.001323  -0.000005  -0.000001  -0.000002
    26  C   -0.000174  -0.013923  -0.000070  -0.000001   0.166133   0.005938
    27  C   -0.000987  -0.004567   0.255684  -0.011627   0.004029   0.000003
    28  O    0.000004   0.002710   0.000027   0.000017  -0.058613  -0.004337
    29  C   -0.000026   0.001831  -0.000007  -0.000001  -0.059631   0.000180
    30  H    0.000000  -0.000014   0.000000   0.000000   0.002678   0.000009
    31  H    0.000010  -0.000060   0.000001   0.000000   0.002222   0.000009
    32  H    0.000002  -0.000116   0.000003   0.000000  -0.000594  -0.000006
    33  C    0.000375  -0.000033  -0.073941  -0.003681   0.000028   0.000000
    34  H   -0.000010   0.000005   0.003752  -0.000128   0.000000   0.000000
    35  H    0.000023  -0.000004  -0.002321   0.000201   0.000000   0.000000
    36  H   -0.000040  -0.000018  -0.000050   0.002076   0.000002   0.000000
    37  O    0.010456  -0.000110  -0.092581   0.002702  -0.000073  -0.000001
              25         26         27         28         29         30
     1  C    0.000388   0.000000   0.000000   0.000000   0.000000   0.000000
     2  C   -0.001321   0.000000   0.000001   0.000000   0.000000   0.000000
     3  C   -0.070267   0.000000   0.000006   0.000000   0.000000   0.000000
     4  C    0.002980   0.000000   0.000000   0.000000   0.000000   0.000000
     5  C   -0.000035   0.000000   0.000000   0.000000   0.000000   0.000000
     6  C   -0.000012   0.000000   0.000000   0.000000   0.000000   0.000000
     7  H    0.000005   0.000000   0.000000   0.000000   0.000000   0.000000
     8  H    0.000051   0.000000   0.000000   0.000000   0.000000   0.000000
     9  H    0.000000   0.000000   0.000000   0.000000   0.000000   0.000000
    10  H    0.000000   0.000000   0.000000   0.000000   0.000000   0.000000
    11  N   -0.026838   0.000000   0.000000   0.000000   0.000000   0.000000
    12  H    0.000701   0.000000   0.000000   0.000000   0.000000   0.000000
    13  H    0.027651   0.000000   0.000001   0.000000   0.000000   0.000000
    14  C    0.521420   0.000001  -0.000162   0.000000   0.000000   0.000000
    15  C   -0.084418  -0.000100   0.004060   0.000007   0.000002   0.000000
    16  H    0.000591  -0.000002  -0.000071   0.000000   0.000000   0.000000
    17  H    0.001927  -0.000003  -0.000066  -0.000001   0.000000   0.000000
    18  C   -0.003613   0.003400  -0.032272  -0.000405  -0.000166   0.000003
    19  H    0.009158  -0.000174  -0.000987   0.000004  -0.000026   0.000000
    20  C    0.000176  -0.013923  -0.004567   0.002710   0.001831  -0.000014
    21  N    0.001323  -0.000070   0.255684   0.000027  -0.000007   0.000000
    22  H   -0.000005  -0.000001  -0.011627   0.000017  -0.000001   0.000000
    23  O   -0.000001   0.166133   0.004029  -0.058613  -0.059631   0.002678
    24  O   -0.000002   0.005938   0.000003  -0.004337   0.000180   0.000009
    25  O    8.231944   0.000000  -0.000313   0.000000   0.000000   0.000000
    26  C    0.000000   4.533692  -0.000106   0.378561   0.360831  -0.033111
    27  C   -0.000313  -0.000106   4.596005   0.000000   0.000011   0.000000
    28  O    0.000000   0.378561   0.000000   8.224814  -0.049453   0.001045
    29  C    0.000000   0.360831   0.000011  -0.049453   5.103383   0.384732
    30  H    0.000000  -0.033111   0.000000   0.001045   0.384732   0.468168
    31  H    0.000000  -0.035517   0.000000   0.003401   0.370327  -0.020306
    32  H    0.000000  -0.020649   0.000049  -0.008043   0.393284  -0.018676
    33  C   -0.000014  -0.000001   0.350865   0.000000   0.000000   0.000000
    34  H    0.000000   0.000000  -0.031758   0.000000   0.000000   0.000000
    35  H    0.000014   0.000000  -0.019517   0.000000   0.000000   0.000000
    36  H    0.000000   0.000000  -0.041950   0.000000   0.000000   0.000000
    37  O    0.000474   0.000002   0.373909   0.000000   0.000000   0.000000
              31         32         33         34         35         36
     1  C    0.000000   0.000000   0.000000   0.000000   0.000000   0.000000
     2  C    0.000000   0.000000   0.000000   0.000000   0.000000   0.000000
     3  C    0.000000   0.000000  -0.000003   0.000000   0.000000   0.000000
     4  C    0.000000   0.000000   0.000000   0.000000   0.000000   0.000000
     5  C    0.000000   0.000000   0.000000   0.000000   0.000000   0.000000
     6  C    0.000000   0.000000   0.000000   0.000000   0.000000   0.000000
     7  H    0.000000   0.000000   0.000000   0.000000   0.000000   0.000000
     8  H    0.000000   0.000000   0.000000   0.000000   0.000000   0.000000
     9  H    0.000000   0.000000   0.000000   0.000000   0.000000   0.000000
    10  H    0.000000   0.000000   0.000000   0.000000   0.000000   0.000000
    11  N    0.000000   0.000000   0.000000   0.000000   0.000000   0.000000
    12  H    0.000000   0.000000   0.000000   0.000000   0.000000   0.000000
    13  H    0.000000   0.000000   0.000000   0.000000   0.000000   0.000000
    14  C    0.000000   0.000000  -0.000035   0.000000   0.000010   0.000003
    15  C    0.000000   0.000000  -0.000194   0.000001   0.000019   0.000002
    16  H    0.000000   0.000000   0.000002   0.000000   0.000000   0.000000
    17  H    0.000000   0.000000  -0.000005   0.000000  -0.000001  -0.000003
    18  C   -0.000005  -0.000003   0.004638  -0.000084  -0.000074  -0.000193
    19  H    0.000010   0.000002   0.000375  -0.000010   0.000023  -0.000040
    20  C   -0.000060  -0.000116  -0.000033   0.000005  -0.000004  -0.000018
    21  N    0.000001   0.000003  -0.073941   0.003752  -0.002321  -0.000050
    22  H    0.000000   0.000000  -0.003681  -0.000128   0.000201   0.002076
    23  O    0.002222  -0.000594   0.000028   0.000000   0.000000   0.000002
    24  O    0.000009  -0.000006   0.000000   0.000000   0.000000   0.000000
    25  O    0.000000   0.000000  -0.000014   0.000000   0.000014   0.000000
    26  C   -0.035517  -0.020649  -0.000001   0.000000   0.000000   0.000000
    27  C    0.000000   0.000049   0.350865  -0.031758  -0.019517  -0.041950
    28  O    0.003401  -0.008043   0.000000   0.000000   0.000000   0.000000
    29  C    0.370327   0.393284   0.000000   0.000000   0.000000   0.000000
    30  H   -0.020306  -0.018676   0.000000   0.000000   0.000000   0.000000
    31  H    0.505004  -0.026444   0.000000   0.000000   0.000000   0.000000
    32  H   -0.026444   0.439218   0.000000   0.000000   0.000000   0.000000
    33  C    0.000000   0.000000   5.133022   0.382770   0.397889   0.367760
    34  H    0.000000   0.000000   0.382770   0.486322  -0.018247  -0.023077
    35  H    0.000000   0.000000   0.397889  -0.018247   0.431257  -0.029353
    36  H    0.000000   0.000000   0.367760  -0.023077  -0.029353   0.562839
    37  O    0.000000   0.000001  -0.057674   0.000997  -0.007935   0.004154
              37
     1  C    0.000000
     2  C    0.000002
     3  C   -0.000010
     4  C    0.000000
     5  C    0.000000
     6  C    0.000000
     7  H    0.000000
     8  H    0.000000
     9  H    0.000000
    10  H    0.000000
    11  N   -0.000001
    12  H    0.000000
    13  H    0.000008
    14  C    0.000098
    15  C    0.000059
    16  H   -0.000008
    17  H   -0.000008
    18  C   -0.001211
    19  H    0.010456
    20  C   -0.000110
    21  N   -0.092581
    22  H    0.002702
    23  O   -0.000073
    24  O   -0.000001
    25  O    0.000474
    26  C    0.000002
    27  C    0.373909
    28  O    0.000000
    29  C    0.000000
    30  H    0.000000
    31  H    0.000000
    32  H    0.000001
    33  C   -0.057674
    34  H    0.000997
    35  H   -0.007935
    36  H    0.004154
    37  O    8.331000
 Mulliken charges:
               1
     1  C   -0.272295
     2  C    0.396890
     3  C   -0.177987
     4  C   -0.183530
     5  C   -0.254451
     6  C   -0.156139
     7  H    0.197148
     8  H    0.217719
     9  H    0.201208
    10  H    0.209921
    11  N   -0.965605
    12  H    0.380772
    13  H    0.455842
    14  C    0.589724
    15  C   -0.416825
    16  H    0.229200
    17  H    0.199420
    18  C   -0.068981
    19  H    0.297335
    20  C    0.821950
    21  N   -0.710066
    22  H    0.380581
    23  O   -0.631081
    24  O   -0.545758
    25  O   -0.611966
    26  C    0.655100
    27  C    0.558775
    28  O   -0.489735
    29  C   -0.505295
    30  H    0.215473
    31  H    0.201359
    32  H    0.241973
    33  C   -0.501769
    34  H    0.199455
    35  H    0.248038
    36  H    0.157848
    37  O   -0.564249
 Sum of Mulliken charges =   0.00000
 Mulliken charges with hydrogens summed into heavy atoms:
               1
     1  C   -0.075147
     2  C    0.396890
     3  C   -0.177987
     4  C    0.034189
     5  C   -0.053243
     6  C    0.053783
    11  N   -0.128990
    14  C    0.589724
    15  C    0.011796
    18  C    0.228353
    20  C    0.821950
    21  N   -0.329485
    23  O   -0.631081
    24  O   -0.545758
    25  O   -0.611966
    26  C    0.655100
    27  C    0.558775
    28  O   -0.489735
    29  C    0.153510
    33  C    0.103572
    37  O   -0.564249
 DipInt: DoE/N= T F RetVal/Mat= T F Init=T NMatP=  1 IDeriv=0 Min/MaxMlt=  0  4
 Entering OneElI...
 OneElI was handed    33244541 working-precision words.
 Multipole integrals L=0 to 4 MinM= 0 MaxM= 0.
 Requested accuracy = 0.1000D-12
 PrtBox:  NBox=     1 Levels=  1 BoxLen=   35.86 SMaxX=       24.54
          Shift=           12.137691            5.458698            3.803257
 Box      1 Number                   0 centers from      1 to    116:
 ShPair: Thresh= 1.00D-13 NBox=     1 BxSize= 3.59D+01 RnKept= 2.11D+01
         NSMCal=                 6786 NSMKep=                4872
 PrsmSu:  NPrtUS=   1 ThrOK=F IAlg=1 NPAlg=1 LenDen=           0.
 Prism:   IPart=     0 DynPar=F LinDyn=F Incr=          48.
 PRISM was handed    32806571 working-precision words and  4872 shell-pairs
 IPart=  0 NShTot=        4872 NBatch=          58 AvBLen=        84.0
 PrSmSu:  NxtVal=             49.
 Electronic moments (au):
       -154.00000000         -0.30358409          0.24157433          0.32638457
      -6311.70150886      -1401.29743648       -515.86295415          6.14028419
         -7.42589081          8.14438011       2772.03275984      -1906.84898149
       -355.87130726       -972.42708256       6010.39735917       1115.30053157
       -324.51344715       -864.13909575      -1294.14303349      -1803.70030738
    -505060.86935772     -31241.36823594      -5368.47725528      10327.10663420
      23082.10375955      -7577.49066140      -3748.68970623      -1263.81803160
      -2270.64697152     -41299.25164943     -19359.32164413      -7414.74685940
       9814.88455885      -3363.11000350      -1614.35029551
 Electronic spatial extent (au):  <R**2>=           8228.8619
 DipInt: DoE/N= F T RetVal/Mat= T F Init=T NMatP=  1 IDeriv=0 Min/MaxMlt=  0  4
 Nuclear    moments (au):
        154.00000000          0.00000000          0.00000000          0.00000000
       6240.50993596       1302.52381994        428.05068888          0.00000000
          0.00000000          0.00000000      -2771.75512592       1933.38672308
        358.31462886        913.61967212      -5904.75776983      -1222.33298858
        368.71131880        876.62265590       1310.63624728       1885.72927123
     486064.25547305      26330.84517740       3644.24124133     -10152.19289969
     -24052.17867995       7519.11638418       3864.48597469       1332.14370488
       2262.99720823      36796.58775674      15346.64592372       6425.86969142
      -9784.46599902       3381.89458288       1557.13821517
 Total      moments (au):
          0.00000000         -0.30358409          0.24157433          0.32638457
        -71.19157290        -98.77361654        -87.81226526          6.14028419
         -7.42589081          8.14438011          0.27763393         26.53774159
          2.44332160        -58.80741044        105.63958935       -107.03245700
         44.19787165         12.48356015         16.49321378         82.02896385
     -18996.61388467      -4910.52305855      -1724.23601395        174.91373451
       -970.07492040        -58.37427722        115.79626846         68.32567328
         -7.64976329      -4502.66389269      -4012.67572041       -988.87716799
         30.41855983         18.78457938        -57.21208034
 Traceless Quadrup. (au):
         14.73424534        -12.84779831         -1.88644703          6.14028419
         -7.42589081          8.14438011
 Charge=              0.0000 electrons
 Dipole moment (field-independent basis, Debye):
    X=             -0.7716    Y=              0.6140    Z=              0.8296  Tot=              1.2887
 Quadrupole moment (field-independent basis, Debye-Ang):
   XX=            -95.7551   YY=           -132.8539   ZZ=           -118.1105
   XY=              8.2589   XZ=             -9.9881   YZ=             10.9545
 Traceless Quadrupole moment (field-independent basis, Debye-Ang):
   XX=             19.8181   YY=            -17.2807   ZZ=             -2.5373
   XY=              8.2589   XZ=             -9.9881   YZ=             10.9545
 Octapole moment (field-independent basis, Debye-Ang**2):
  XXX=              0.1976  YYY=             18.8885  ZZZ=              1.7391  XYY=            -41.8568
  XXY=             75.1902  XXZ=            -76.1816  XZZ=             31.4583  YZZ=              8.8853
  YYZ=             11.7392  XYZ=             58.3851
 Hexadecapole moment (field-independent basis, Debye-Ang**3):
 XXXX=          -7155.0352 YYYY=          -1849.5383 ZZZZ=           -649.4299 XXXY=             65.8809
 XXXZ=           -365.3767 YYYX=            -21.9866 YYYZ=             43.6144 ZZZX=             25.7347
 ZZZY=             -2.8813 XXYY=          -1695.9190 XXZZ=          -1511.3660 YYZZ=           -372.4585
 XXYZ=             11.4571 YYXZ=              7.0752 ZZXY=            -21.5488
 N-N= 1.638705591170D+03 E-N=-5.674785401673D+03  KE= 1.019510922555D+03
 Entering OneElI...
 OneElI was handed    33303647 working-precision words.
 Calculate electrostatic properties
    NBasis =   347  MinDer = 0  MaxDer = 0
    NGrid  =    37  NMatD  =   1
 Requested accuracy = 0.1000D-12
 PrtBox:  NBox=     1 Levels=  1 BoxLen=   29.89 SMaxX=       24.54
          Shift=           12.137691            5.458698            3.803257
 Box      1 Number                   0 centers from      1 to    116:
 ShPair: Thresh= 1.00D-13 NBox=     1 BxSize= 2.99D+01 RnKept= 1.82D+01
         NSMCal=                 6786 NSMKep=                4280
 PrsmSu:  NPrtUS=   1 ThrOK=F IAlg=1 NPAlg=1 LenDen=           0.
 Prism:   IPart=     0 DynPar=F LinDyn=F Incr=         512.
 PRISM was handed    32908580 working-precision words and  4280 shell-pairs
 IPart=  0 NShTot=      158360 NBatch=        4280 AvBLen=        37.0
 PrSmSu:  NxtVal=            513.
 --------------------------------------------------------
       Center         ----      EFG at Nuclei      ----
                      3XX-RR        3YY-RR        3ZZ-RR
 --------------------------------------------------------
     1   Atom        0.028765      0.055510     -0.084275
     2   Atom        0.356863     -0.033368     -0.323495
     3   Atom       -0.013215      0.039977     -0.026762
     4   Atom        0.229317      0.048872     -0.278189
     5   Atom        0.112591      0.015457     -0.128048
     6   Atom        0.188832      0.092683     -0.281515
     7   Atom       -0.142990     -0.010839      0.153829
     8   Atom       -0.136872     -0.012921      0.149793
     9   Atom        0.145309     -0.203981      0.058672
    10   Atom       -0.265514      0.130308      0.135206
    11   Atom       -0.327118     -0.244091      0.571209
    12   Atom       -0.241093      0.009644      0.231449
[...]
   D59        1.68649  -0.00009   0.06818   0.00000   0.06818   1.75467
   D60        1.86888  -0.00140   0.08840   0.00000   0.08840   1.95729
   D61       -1.31685  -0.00087   0.09744   0.00000   0.09744  -1.21941
   D62       -3.10956   0.00015  -0.06600   0.00000  -0.06596   3.10766
   D63        0.02474   0.00028  -0.06297   0.00000  -0.06293  -0.03819
   D64       -0.23828   0.00037   0.08684   0.00000   0.08681  -0.15147
   D65        2.89603   0.00050   0.08988   0.00000   0.08984   2.98586
   D66       -0.09695  -0.00136  -0.07078   0.00000  -0.07079  -0.16774
   D67        3.05601  -0.00046  -0.05521   0.00000  -0.05520   3.00081
   D68        3.08720  -0.00074   0.00659   0.00000   0.00659   3.09379
   D69       -1.10085  -0.00004   0.01675   0.00000   0.01675  -1.08410
   D70        0.96646  -0.00044   0.00891   0.00000   0.00891   0.97538
   D71       -0.04250   0.00022   0.02300   0.00000   0.02301  -0.01949
   D72        2.05264   0.00092   0.03316   0.00000   0.03316   2.08580
   D73       -2.16323   0.00052   0.02533   0.00000   0.02532  -2.13791
   D74       -3.05429  -0.00006  -0.11277   0.00000  -0.11277   3.11613
   D75       -0.95146   0.00014  -0.11925   0.00000  -0.11925  -1.07072
   D76        1.13712   0.00008  -0.11981   0.00000  -0.11981   1.01731
   D77        0.09460  -0.00019  -0.11581   0.00000  -0.11581  -0.02121
   D78        2.19742   0.00001  -0.12229   0.00000  -0.12229   2.07513
   D79       -1.99718  -0.00005  -0.12285   0.00000  -0.12284  -2.12002
         Item               Value     Threshold  Converged?
 Maximum Force            0.002451     0.000450     NO 
 RMS     Force            0.000486     0.000300     NO 
 Maximum Displacement     0.370965     0.001800     NO 
 RMS     Displacement     0.079565     0.001200     NO 
 Predicted change in Energy=-1.677493D-05
 GradGradGradGradGradGradGradGradGradGradGradGradGradGradGradGradGradGrad

                          Input orientation:                          
 ---------------------------------------------------------------------
 Center     Atomic      Atomic             Coordinates (Angstroms)
 Number     Number       Type             X           Y           Z
 ---------------------------------------------------------------------
      1          6           0        0.116779   -0.286049   -0.108069
      2          6           0        0.051088   -0.325278    1.294780
      3          6           0        1.216713   -0.010363    2.028717
      4          6           0        2.378967    0.337334    1.325998
      5          6           0        2.426508    0.382837   -0.045558
      6          6           0        1.273715    0.060888   -0.758815
      7          1           0       -0.764030   -0.536786   -0.672907
      8          1           0        3.266822    0.590929    1.873586
      9          1           0        3.330687    0.660511   -0.553959
     10          1           0        1.283842    0.084093   -1.834298
     11          7           0       -1.117077   -0.718542    1.884961
     12          1           0       -1.933651   -0.686620    1.318232
     13          1           0       -1.244571   -0.488917    2.843996
     14          6           0        1.212986   -0.010570    3.513361
     15          6           0        2.544387    0.107175    4.247060
     16          1           0        2.888950    1.133598    4.166723
     17          1           0        3.303251   -0.499551    3.767830
     18          6           0        2.431391   -0.269952    5.720703
     19          1           0        1.598791    0.235163    6.185067
     20          6           0        3.699295    0.118632    6.466688
     21          7           0        2.206831   -1.686348    5.895691
     22          1           0        2.804645   -2.315593    5.407590
     23          8           0        3.565972   -0.050285    7.819183
     24          8           0        4.683351    0.551919    5.992172
     25          8           0        0.198168   -0.075463    4.154682
     26          6           0        4.271262   -1.002098    8.467278
     27          6           0        1.313243   -2.201684    6.788940
     28          8           0        4.896113   -1.829505    7.901896
     29          6           0        4.103442   -0.861582    9.950589
     30          1           0        4.633364   -1.657285   10.452064
     31          1           0        4.493247    0.099757   10.265583
     32          1           0        3.049502   -0.891696   10.197814
     33          6           0        1.213008   -3.710932    6.766397
     34          1           0        0.505624   -4.025191    7.519192
     35          1           0        0.878943   -4.053119    5.792573
     36          1           0        2.180217   -4.159957    6.969395
     37          8           0        0.667598   -1.518509    7.529810
 ---------------------------------------------------------------------
                    Distance matrix (angstroms):
                    1          2          3          4          5
     1  C    0.000000
     2  C    1.404933   0.000000
     3  C    2.419031   1.412982   0.000000
     4  C    2.750028   2.420548   1.401978   0.000000
     5  C    2.405445   2.817898   2.433274   1.373134   0.000000
     6  C    1.371983   2.420990   2.789025   2.375806   1.393313
     7  H    1.075981   2.140314   3.391052   3.825982   3.379173
     8  H    3.823457   3.393435   2.142093   1.073522   2.105361
     9  H    3.379941   3.891707   3.404288   2.131773   1.073832
    10  H    2.116343   3.387977   3.864752   3.354236   2.143484
    11  N    2.383614   1.366594   2.443104   3.694542   4.182933
    12  H    2.529635   2.017501   3.299532   4.432519   4.691977
    13  H    3.257164   2.026223   2.636591   4.014603   4.752504
    14  C    3.793720   2.524114   1.484649   2.503019   3.780649
    15  C    5.001505   3.888382   2.587968   2.934781   4.303074
    16  H    5.289062   4.292999   2.945521   2.993967   4.303580
    17  H    5.022129   4.089366   2.759974   2.741755   4.011136
    18  C    6.271544   5.025703   3.895329   4.436775   5.803095
    19  H    6.486261   5.159883   4.181091   4.922364   6.287099
    20  C    7.498374   6.344691   5.086791   5.312041   6.640718
    21  N    6.509553   5.260050   4.329289   5.000701   6.295095
    22  H    6.462675   5.334664   4.387756   4.886575   6.096010
    23  O    8.648343   7.416055   6.249008   6.612161   7.958650
    24  O    7.666075   6.655286   5.295537   5.208590   6.447954
    25  O    4.268725   2.874558   2.358262   3.595517   4.776772
    26  C    9.555576   8.349413   7.195060   7.508178   8.819838
    27  C    7.257404   5.941358   5.241272   6.117688   7.391175
    28  O    9.454302   8.330124   7.165298   7.367065   8.611355
    29  C   10.835189   9.572473   8.474305   8.876643  10.211936
    30  H   11.567032  10.326052   9.237891   9.609676  10.919358
    31  H   11.265655  10.019419   8.865313   9.189276  10.520037
    32  H   10.732142   9.411447   8.418433   8.981606  10.341142
    33  C    7.758209   6.538448   6.011642   6.880832   8.039543
    34  H    8.503381   7.255293   6.838846   7.803633   8.963590
    35  H    7.041966   5.900194   5.533948   6.440220   7.493760
    36  H    8.327991   7.172114   6.523632   7.218937   8.361053
    37  O    7.756259   6.378048   5.730451   6.697777   8.005941
                    6          7          8          9         10
     6  C    0.000000
     7  H    2.125323   0.000000
     8  H    3.344093   4.899402   0.000000
     9  H    2.152359   4.267831   2.429382   0.000000
    10  H    1.075780   2.434769   4.235268   2.482156   0.000000
    11  N    3.648691   2.588506   4.575305   5.256684   4.499057
    12  H    3.893596   2.314108   5.383816   5.747445   4.569979
    13  H    4.429932   3.549903   4.739243   5.813800   5.348611
    14  C    4.273205   4.659434   2.696091   4.634447   5.348965
    15  C    5.164836   5.963755   2.527708   4.896349   6.210669
    16  H    5.293451   6.289393   2.386578   4.764849   6.300006
    17  H    4.992357   6.021985   2.186008   4.474859   5.983518
    18  C    6.590434   7.152632   4.029810   6.406706   7.649852
    19  H    6.953672   7.294562   4.636568   6.971002   8.026969
    20  C    7.621986   8.445392   4.637529   7.051170   8.645343
    21  N    6.943053   7.300272   4.742035   6.954767   7.983676
    22  H    6.783507   7.271316   4.598985   6.683860   7.779221
    23  O    8.879687   9.544694   5.987550   8.406551   9.920476
    24  O    7.579087   8.676549   4.355551   6.685307   8.545709
    25  O    5.031685   4.944114   3.881252   5.703125   6.088680
    26  C    9.758895  10.445749   6.857362   9.221262  10.780861
    27  C    7.879683   7.922506   5.981292   8.135134   8.921091
    28  O    9.576183  10.355462   6.697284   8.952778  10.559537
    29  C   11.115289  11.690015   8.249103  10.642343  12.154341
    30  H   11.828913  12.415811   8.972858  11.322619  12.853263
    31  H   11.484958  12.152971   8.495350  10.896260  12.518292
    32  H   11.140402  11.525691   8.458024  10.866878  12.200058
    33  C    8.417786   8.326291   6.831087   8.785311   9.401020
    34  H    9.263445   8.993969   7.797797   9.752567  10.245956
    35  H    7.746069   7.540980   6.528982   8.276946   8.686174
    36  H    8.852261   8.955487   7.051163   9.008960   9.814299
    37  O    8.459503   8.384385   6.572561   8.785642   9.520221
                   11         12         13         14         15
    11  N    0.000000
    12  H    0.994482   0.000000
    13  H    0.994350   1.685786   0.000000
    14  C    2.929523   3.895762   2.591611   0.000000
    15  C    4.434821   5.409341   4.084129   1.524732   0.000000
    16  H    4.968411   5.889362   4.633374   2.131867   1.085689
    17  H    4.809620   5.784520   4.640718   2.161727   1.083352
    18  C    5.244594   6.213610   4.672909   2.534590   1.525325
    19  H    5.174593   6.083907   4.446544   2.710581   2.160186
    20  C    6.700039   7.673664   6.159125   3.862715   2.502137
    21  N    5.298204   6.252694   4.760132   3.077573   2.459401
    22  H    5.508120   6.467446   5.128831   3.381511   2.698958
    23  O    7.588973   8.538920   6.934422   4.906957   3.718668
    24  O    7.219988   8.195390   6.792246   4.301666   2.796137
    25  O    2.700936   3.600503   1.992571   1.202231   2.355129
    26  C    8.511258   9.471502   7.893610   5.905716   4.692849
    27  C    5.670553   6.539602   5.003855   3.942137   3.647972
    28  O    8.578823   9.554921   8.067684   6.011089   4.758064
    29  C    9.608780  10.535403   8.901898   7.107522   5.991610
    30  H   10.360698  11.291358   9.684932   7.909251   6.780798
    31  H   10.118309  11.044388   9.399417   7.507649   6.326194
    32  H    9.300209  10.184343   8.525252   6.987924   6.055110
    33  C    6.181594   6.980718   5.639707   4.926958   4.764197
    34  H    6.731393   7.453055   6.117669   5.715262   5.651536
    35  H    5.511164   6.266078   5.089887   4.652805   4.740291
    36  H    6.969000   7.805359   6.498048   5.486084   5.074658
    37  O    5.974056   6.785444   5.164621   4.324719   4.116022
                   16         17         18         19         20
    16  H    0.000000
    17  H    1.731455   0.000000
    18  C    2.143400   2.150945   0.000000
    19  H    2.558399   3.047626   1.078888   0.000000
    20  C    2.641335   2.796933   1.521536   2.122499   0.000000
    21  N    3.377382   2.671781   1.444723   2.036088   2.410693
    22  H    3.666576   2.497084   2.102856   2.926587   2.801346
    23  O    3.898769   4.084644   2.395652   2.573250   1.369507
    24  O    2.624974   2.820986   2.412570   3.106776   1.175275
    25  O    2.949963   3.157696   2.734507   2.486101   4.200110
    26  C    4.996675   4.824356   3.385978   3.725776   2.363376
    27  C    4.525812   3.998061   2.474464   2.526741   3.343794
    28  O    5.173026   4.625634   3.642069   4.252374   2.699525
    29  C    6.237695   6.244829   4.586690   4.653524   3.641665
    30  H    7.094894   6.912925   5.399922   5.567518   4.462016
    31  H    6.390516   6.632952   5.004386   5.004680   3.881021
    32  H    6.364090   6.446926   4.562143   4.413219   3.919731
    33  C    5.747743   4.865541   3.797140   4.007298   4.575698
    34  H    6.597908   5.859144   4.587478   4.596251   5.336532
    35  H    5.795304   4.754440   4.089940   4.365959   5.080583
    36  H    6.031500   4.990972   4.093221   4.502256   4.568002
    37  O    4.824773   4.705044   2.818285   2.398087   3.605779
                   21         22         23         24         25
    21  N    0.000000
    22  H    0.995778   0.000000
    23  O    2.867715   3.395147   0.000000
    24  O    3.339506   3.477628   2.224669   0.000000
    25  O    3.108180   3.658098   4.977077   4.887417   0.000000
    26  C    3.367958   3.638397   1.350337   2.951430   6.003935
    27  C    1.364538   2.036022   3.280961   4.424342   3.564199
    28  O    3.358213   3.291213   2.223003   3.059983   6.260108
    29  C    4.551876   4.943669   2.343069   4.243036   7.032900
    30  H    5.162310   5.405950   3.264022   4.977320   7.863214
    31  H    5.245363   5.682023   2.620539   4.301469   7.471380
    32  H    4.455314   5.003367   2.575384   4.737184   6.731699
    33  C    2.417592   2.515280   4.477180   5.551091   4.589943
    34  H    3.316632   3.559085   5.025496   6.382408   5.197577
    35  H    2.715792   2.622124   5.229719   5.976599   4.355213
    36  H    2.696719   2.496162   4.419487   5.424244   5.341743
    37  O    2.251167   3.115466   3.261900   4.772555   3.700572
                   26         27         28         29         30
    26  C    0.000000
    27  C    3.606342   0.000000
    28  O    1.180973   3.770165   0.000000
    29  C    1.499373   4.424603   2.400488   0.000000
    30  H    2.121264   4.973736   2.569446   1.079554   0.000000
    31  H    2.120675   5.243673   3.077559   1.084132   1.772457
    32  H    2.121235   4.043647   3.092037   1.082967   1.777467
    33  C    4.425348   1.512741   4.288868   5.158729   5.431431
    34  H    4.921178   2.123840   4.923808   5.372561   5.589898
    35  H    5.288725   2.146899   5.052856   6.154056   6.445662
    36  H    4.072862   2.149196   3.698196   4.844130   4.940676
    37  O    3.759245   1.196859   4.256231   4.254027   4.928095
                   31         32         33         34         35
    31  H    0.000000
    32  H    1.752704   0.000000
    33  C    6.125816   4.805770   0.000000
    34  H    6.360739   4.844080   1.079746   0.000000
    35  H    7.093475   5.840553   1.084907   1.766737   0.000000
    36  H    5.861751   4.675454   1.085507   1.767682   1.757737
    37  O    4.973814   3.631060   2.384741   2.511932   3.080082
                   36         37
    36  H    0.000000
    37  O    3.095049   0.000000
 Stoichiometry    C14H16N2O5
 Framework group  C1[X(C14H16N2O5)]
 Deg. of freedom   105
 Full point group                 C1      NOp   1
 Largest Abelian subgroup         C1      NOp   1
 Largest concise Abelian subgroup C1      NOp   1
                         Standard orientation:                         
 ---------------------------------------------------------------------
 Center     Atomic      Atomic             Coordinates (Angstroms)
 Number     Number       Type             X           Y           Z
 ---------------------------------------------------------------------
      1          6           0       -5.223914    0.323226    0.216710
      2          6           0       -3.937740    0.713475   -0.192312
      3          6           0       -2.900684   -0.245095   -0.145673
      4          6           0       -3.203967   -1.541305    0.294099
      5          6           0       -4.468171   -1.912838    0.680428
      6          6           0       -5.480634   -0.956513    0.639440
      7          1           0       -6.015288    1.051924    0.195226
      8          1           0       -2.426604   -2.281175    0.321435
      9          1           0       -4.669557   -2.916355    1.005252
     10          1           0       -6.479492   -1.218990    0.940589
     11          7           0       -3.734638    2.012969   -0.563318
     12          1           0       -4.545370    2.541065   -0.793153
     13          1           0       -2.919598    2.214116   -1.096217
     14          6           0       -1.522762    0.092215   -0.583548
     15          6           0       -0.401495   -0.900147   -0.295820
     16          1           0       -0.501898   -1.736766   -0.980442
     17          1           0       -0.501640   -1.316606    0.699261
     18          6           0        0.981586   -0.278941   -0.462574
     19          1           0        1.056896    0.247827   -1.401106
     20          6           0        2.054555   -1.357394   -0.435215
     21          7           0        1.265682    0.683396    0.576858
     22          1           0        1.105270    0.409266    1.520625
     23          8           0        3.288954   -0.855218   -0.750857
     24          8           0        1.890210   -2.500137   -0.215216
     25          8           0       -1.265625    1.105856   -1.176652
     26          6           0        4.266047   -0.794032    0.179173
     27          6           0        1.861507    1.888652    0.343805
     28          8           0        4.070877   -1.004552    1.324724
     29          6           0        5.566786   -0.395256   -0.451045
     30          1           0        6.325710   -0.304038    0.311287
     31          1           0        5.858250   -1.146235   -1.176594
     32          1           0        5.439544    0.543777   -0.975302
     33          6           0        2.017715    2.752563    1.575731
     34          1           0        2.518690    3.668128    1.298934
     35          1           0        1.046563    2.986739    1.998871
     36          1           0        2.600620    2.235940    2.331806
     37          8           0        2.232786    2.230946   -0.741303
 ---------------------------------------------------------------------
 Rotational constants (GHZ):      0.6498501      0.1511032      0.1327572
 Standard basis: 6-31G(d) (6D, 7F)
 There are   347 symmetry adapted cartesian basis functions of A   symmetry.
 There are   347 symmetry adapted basis functions of A   symmetry.
   347 basis functions,   652 primitive gaussians,   347 cartesian basis functions
    77 alpha electrons       77 beta electrons
       nuclear repulsion energy      1673.0813118952 Hartrees.
 NAtoms=   37 NActive=   37 NUniq=   37 SFac= 1.00D+00 NAtFMM=   60 NAOKFM=F Big=F
 Integral buffers will be    131072 words long.
 Raffenetti 1 integral format.
 Two-electron integral symmetry is turned on.
 One-electron integrals computed using PRISM.
 NBasis=   347 RedAO= T EigKep=  3.54D-04  NBF=   347
 NBsUse=   347 1.00D-06 EigRej= -1.00D+00 NBFU=   347
 Lowest energy guess from the checkpoint file:  "d-kynurenine_r_resp_cap_1_1.chk"
 B after Tr=     0.000000    0.000000    0.000000
         Rot=    1.000000    0.000725   -0.000008    0.000525 Ang=   0.10 deg.
 B after Tr=     0.000000    0.000000    0.000000
         Rot=    0.999989   -0.003976    0.000042   -0.002351 Ang=  -0.53 deg.
 Requested convergence on RMS density matrix=1.00D-08 within 128 cycles.
 Requested convergence on MAX density matrix=1.00D-06.
 Requested convergence on             energy=1.00D-06.
 No special actions if energy rises.
 Integral accuracy reduced to 1.0D-05 until final iterations.
 Initial convergence to 1.0D-05 achieved.  Increase integral accuracy.
 SCF Done:  E(RHF) =  -1022.74309071     A.U. after    9 cycles
            NFock=  9  Conv=0.44D-08     -V/T= 2.0016
 Calling FoFJK, ICntrl=      2127 FMM=F ISym2X=0 I1Cent= 0 IOpClX= 0 NMat=1 NMatS=1 NMatT=0.
