 Entering Gaussian System, Link 0=g09
 Initial command:
 /apps/gaussian/g09/em64t-sse4_2/l1.exe "/ufrc/chm6580/share/aravinda1879/multi_confo/Gau-4809.inp" -scrdir="/ufrc/chm6580/share/aravinda1879/multi_confo/"
 Entering Link 1 = /apps/gaussian/g09/em64t-sse4_2/l1.exe PID=      4810.
  
 Copyright (c) 1988,1990,1992,1993,1995,1998,2003,2009,2013,
            Gaussian, Inc.  All Rights Reserved.
  
 This is part of the Gaussian(R) 09 program.  It is based on
 the Gaussian(R) 03 system (copyright 2003, Gaussian, Inc.),
 the Gaussian(R) 98 system (copyright 1998, Gaussian, Inc.),
 the Gaussian(R) 94 system (copyright 1995, Gaussian, Inc.),
 the Gaussian 92(TM) system (copyright 1992, Gaussian, Inc.),
 the Gaussian 90(TM) system (copyright 1990, Gaussian, Inc.),
 the Gaussian 88(TM) system (copyright 1988, Gaussian, Inc.),
 the Gaussian 86(TM) system (copyright 1986, Carnegie Mellon
 University), and the Gaussian 82(TM) system (copyright 1983,
 Carnegie Mellon University). Gaussian is a federally registered
 trademark of Gaussian, Inc.
  
 This software contains proprietary and confidential information,
 including trade secrets, belonging to Gaussian, Inc.
  
 This software is provided under written license and may be
 used, copied, transmitted, or stored only in accord with that
 written license.
  
 The following legend is applicable only to US Government
 contracts under FAR:
  
                    RESTRICTED RIGHTS LEGEND
  
 Use, reproduction and disclosure by the US Government is
 subject to restrictions as set forth in subparagraphs (a)
 and (c) of the Commercial Computer Software - Restricted
 Rights clause in FAR 52.227-19.
  
 Gaussian, Inc.
 340 Quinnipiac St., Bldg. 40, Wallingford CT 06492
  
  
 ---------------------------------------------------------------
 Warning -- This program may not be used in any manner that
 competes with the business of Gaussian, Inc. or will provide
 assistance to any competitor of Gaussian, Inc.  The licensee
 of this program is prohibited from giving any competitor of
 Gaussian, Inc. access to this program.  By using this program,
 the user acknowledges that Gaussian, Inc. is engaged in the
 business of creating and licensing software in the field of
 computational chemistry and represents and warrants to the
 licensee that it is not a competitor of Gaussian, Inc. and that
 it will not use this program in any manner prohibited above.
 ---------------------------------------------------------------
  

 Cite this work as:
 Gaussian 09, Revision D.01,
 M. J. Frisch, G. W. Trucks, H. B. Schlegel, G. E. Scuseria, 
 M. A. Robb, J. R. Cheeseman, G. Scalmani, V. Barone, B. Mennucci, 
 G. A. Petersson, H. Nakatsuji, M. Caricato, X. Li, H. P. Hratchian, 
 A. F. Izmaylov, J. Bloino, G. Zheng, J. L. Sonnenberg, M. Hada, 
 M. Ehara, K. Toyota, R. Fukuda, J. Hasegawa, M. Ishida, T. Nakajima, 
 Y. Honda, O. Kitao, H. Nakai, T. Vreven, J. A. Montgomery, Jr., 
 J. E. Peralta, F. Ogliaro, M. Bearpark, J. J. Heyd, E. Brothers, 
 K. N. Kudin, V. N. Staroverov, T. Keith, R. Kobayashi, J. Normand, 
 K. Raghavachari, A. Rendell, J. C. Burant, S. S. Iyengar, J. Tomasi, 
 M. Cossi, N. Rega, J. M. Millam, M. Klene, J. E. Knox, J. B. Cross, 
 V. Bakken, C. Adamo, J. Jaramillo, R. Gomperts, R. E. Stratmann, 
 O. Yazyev, A. J. Austin, R. Cammi, C. Pomelli, J. W. Ochterski, 
 R. L. Martin, K. Morokuma, V. G. Zakrzewski, G. A. Voth, 
 P. Salvador, J. J. Dannenberg, S. Dapprich, A. D. Daniels, 
 O. Farkas, J. B. Foresman, J. V. Ortiz, J. Cioslowski, 
 and D. J. Fox, Gaussian, Inc., Wallingford CT, 2013.
 
 ******************************************
 Gaussian 09:  ES64L-G09RevD.01 24-Apr-2013
                18-Oct-2016 
 ******************************************
 %chk=d-kynurenine_r_o_o_cap_2.chk
 ----------------------------------------------------------------------
 # opt hf/6-31g* geom=connectivity iop(6/33=2,6/42=6) pop=mk scf=tight 
 test
 ----------------------------------------------------------------------
 1/18=20,19=15,38=1,57=2/1,3;
 2/9=110,12=2,17=6,18=5,40=1/2;
 3/5=1,6=6,7=1,11=9,16=1,25=1,30=1,71=1/1,2,3;
 4//1;
 5/5=2,32=2,38=5/2;
 6/7=2,8=2,9=2,10=2,15=8,20=1,28=1,33=2,42=6/1,2;
 7//1,2,3,16;
 1/18=20,19=15/3(2);
 2/9=110/2;
 99//99;
 2/9=110/2;
 3/5=1,6=6,7=1,11=9,16=1,25=1,30=1,71=1/1,2,3;
 4/5=5,16=3,69=1/1;
 5/5=2,32=2,38=5/2;
 7//1,2,3,16;
 1/18=20,19=15/3(-5);
 2/9=110/2;
 6/7=2,8=2,9=2,10=2,15=8,19=2,20=1,28=1,33=2,42=6/1,2;
 99/9=1/99;
 -------------------
 Title Card Required
 -------------------
 Symbolic Z-matrix:
 Charge =  0 Multiplicity = 1
 C
 C                    1    B1
 C                    2    B2       1    A1
 C                    3    B3       2    A2       1    D1       0
 C                    4    B4       3    A3       2    D2       0
 C                    1    B5       2    A4       3    D3       0
 H                    1    B6       6    A5       5    D4       0
 H                    4    B7       3    A6       2    D5       0
 H                    5    B8       4    A7       3    D6       0
 H                    6    B9       1    A8       2    D7       0
 N                    2    B10      1    A9       6    D8       0
 H                    11   B11      2    A10      1    D9       0
 H                    11   B12      2    A11      1    D10      0
 C                    3    B13      2    A12      1    D11      0
 C                    14   B14      3    A13      2    D12      0
 H                    15   B15      14   A14      3    D13      0
 H                    15   B16      14   A15      3    D14      0
 C                    15   B17      14   A16      3    D15      0
 H                    18   B18      15   A17      14   D16      0
 C                    18   B19      15   A18      14   D17      0
 N                    18   B20      15   A19      14   D18      0
 H                    21   B21      18   A20      15   D19      0
 O                    20   B22      18   A21      15   D20      0
 O                    20   B23      18   A22      15   D21      0
 O                    14   B24      3    A23      2    D22      0
 C                    21   B25      18   A24      15   D23      0
 C                    23   B26      20   A25      18   D24      0
 O                    26   B27      21   A26      18   D25      0
 O                    27   B28      23   A27      20   D26      0
 C                    27   B29      23   A28      20   D27      0
 H                    30   B30      27   A29      23   D28      0
 H                    30   B31      27   A30      23   D29      0
 H                    30   B32      27   A31      23   D30      0
 C                    26   B33      21   A32      18   D31      0
 H                    34   B34      26   A33      21   D32      0
 H                    34   B35      26   A34      21   D33      0
 H                    34   B36      26   A35      21   D34      0
       Variables:
  B1                    1.41099                  
  B2                    1.41669                  
  B3                    1.40708                  
  B4                    1.37152                  
  B5                    1.37041                  
  B6                    1.07327                  
  B7                    1.07119                  
  B8                    1.07124                  
  B9                    1.07337                  
  B10                   1.35671                  
  B11                   0.98964                  
  B12                   0.99171                  
  B13                   1.46289                  
  B14                   1.51297                  
  B15                   1.08482                  
  B16                   1.08222                  
  B17                   1.53512                  
  B18                   1.07469                  
  B19                   1.51267                  
  B20                   1.458                    
  B21                   0.99381                  
  B22                   1.36483                  
  B23                   1.20422                  
  B24                   1.23733                  
  B25                   1.35849                  
  B26                   1.38652                  
  B27                   1.22819                  
  B28                   1.19812                  
  B29                   1.49048                  
  B30                   1.08184                  
  B31                   1.07785                  
  B32                   1.08186                  
  B33                   1.50377                  
  B34                   1.0828                   
  B35                   1.08429                  
  B36                   1.07815                  
  A1                  118.28956                  
  A2                  118.54452                  
  A3                  122.44357                  
  A4                  121.29714                  
  A5                  120.20867                  
  A6                  119.13906                  
  A7                  120.75799                  
  A8                  119.33523                  
  A9                  118.77895                  
  A10                 120.04982                  
  A11                 120.25203                  
  A12                 121.23065                  
  A13                 120.5303                   
  A14                 109.38203                  
  A15                 110.69958                  
  A16                 112.25681                  
  A17                 110.30131                  
  A18                 111.69172                  
  A19                 110.31858                  
  A20                 117.66408                  
  A21                 112.5749                   
  A22                 123.20078                  
  A23                 122.53941                  
  A24                 122.11797                  
  A25                 127.77291                  
  A26                 121.6744                   
  A27                 123.28772                  
  A28                 109.60506                  
  A29                 109.91021                  
  A30                 109.53852                  
  A31                 109.60733                  
  A32                 115.96426                  
  A33                 111.80546                  
  A34                 109.71546                  
  A35                 109.00494                  
  D1                    0.27163                  
  D2                   -0.22045                  
  D3                   -0.15219                  
  D4                  179.90265                  
  D5                  179.72988                  
  D6                 -179.94727                  
  D7                 -179.98506                  
  D8                  179.77895                  
  D9                   -1.34705                  
  D10                -178.93241                  
  D11                 179.75024                  
  D12                -178.20864                  
  D13                  65.39915                  
  D14                 -53.21312                  
  D15                -173.074                    
  D16                  61.75474                  
  D17                 -60.00593                  
  D18                -178.40955                  
  D19                  85.49718                  
  D20                 128.59982                  
  D21                 -57.91201                  
  D22                   0.98292                  
  D23                 -91.14343                  
  D24                -153.01276                  
  D25                   1.41767                  
  D26                   7.28101                  
  D27                -174.19819                  
  D28                  58.94658                  
  D29                 179.93338                  
  D30                 -59.30423                  
  D31                -177.6894                   
  D32                 -43.09326                  
  D33                  76.8928                   
  D34                -164.26202                  
 

 GradGradGradGradGradGradGradGradGradGradGradGradGradGradGradGradGradGrad
 Berny optimization.
 Initialization pass.
                           ----------------------------
                           !    Initial Parameters    !
                           ! (Angstroms and Degrees)  !
 --------------------------                            --------------------------
 ! Name  Definition              Value          Derivative Info.                !
 --------------------------------------------------------------------------------
 ! R1    R(1,2)                  1.411          estimate D2E/DX2                !
 ! R2    R(1,6)                  1.3704         estimate D2E/DX2                !
 ! R3    R(1,7)                  1.0733         estimate D2E/DX2                !
 ! R4    R(2,3)                  1.4167         estimate D2E/DX2                !
 ! R5    R(2,11)                 1.3567         estimate D2E/DX2                !
 ! R6    R(3,4)                  1.4071         estimate D2E/DX2                !
 ! R7    R(3,14)                 1.4629         estimate D2E/DX2                !
 ! R8    R(4,5)                  1.3715         estimate D2E/DX2                !
 ! R9    R(4,8)                  1.0712         estimate D2E/DX2                !
 ! R10   R(5,6)                  1.3989         estimate D2E/DX2                !
 ! R11   R(5,9)                  1.0712         estimate D2E/DX2                !
 ! R12   R(6,10)                 1.0734         estimate D2E/DX2                !
 ! R13   R(11,12)                0.9896         estimate D2E/DX2                !
 ! R14   R(11,13)                0.9917         estimate D2E/DX2                !
 ! R15   R(14,15)                1.513          estimate D2E/DX2                !
 ! R16   R(14,25)                1.2373         estimate D2E/DX2                !
 ! R17   R(15,16)                1.0848         estimate D2E/DX2                !
 ! R18   R(15,17)                1.0822         estimate D2E/DX2                !
 ! R19   R(15,18)                1.5351         estimate D2E/DX2                !
 ! R20   R(18,19)                1.0747         estimate D2E/DX2                !
 ! R21   R(18,20)                1.5127         estimate D2E/DX2                !
 ! R22   R(18,21)                1.458          estimate D2E/DX2                !
 ! R23   R(20,23)                1.3648         estimate D2E/DX2                !
 ! R24   R(20,24)                1.2042         estimate D2E/DX2                !
 ! R25   R(21,22)                0.9938         estimate D2E/DX2                !
 ! R26   R(21,26)                1.3585         estimate D2E/DX2                !
 ! R27   R(23,27)                1.3865         estimate D2E/DX2                !
 ! R28   R(26,28)                1.2282         estimate D2E/DX2                !
 ! R29   R(26,34)                1.5038         estimate D2E/DX2                !
 ! R30   R(27,29)                1.1981         estimate D2E/DX2                !
 ! R31   R(27,30)                1.4905         estimate D2E/DX2                !
 ! R32   R(30,31)                1.0818         estimate D2E/DX2                !
 ! R33   R(30,32)                1.0779         estimate D2E/DX2                !
 ! R34   R(30,33)                1.0819         estimate D2E/DX2                !
 ! R35   R(34,35)                1.0828         estimate D2E/DX2                !
 ! R36   R(34,36)                1.0843         estimate D2E/DX2                !
 ! R37   R(34,37)                1.0782         estimate D2E/DX2                !
 ! A1    A(2,1,6)              121.2971         estimate D2E/DX2                !
 ! A2    A(2,1,7)              118.4942         estimate D2E/DX2                !
 ! A3    A(6,1,7)              120.2087         estimate D2E/DX2                !
 ! A4    A(1,2,3)              118.2896         estimate D2E/DX2                !
 ! A5    A(1,2,11)             118.7789         estimate D2E/DX2                !
 ! A6    A(3,2,11)             122.9315         estimate D2E/DX2                !
 ! A7    A(2,3,4)              118.5445         estimate D2E/DX2                !
 ! A8    A(2,3,14)             121.2306         estimate D2E/DX2                !
 ! A9    A(4,3,14)             120.2228         estimate D2E/DX2                !
 ! A10   A(3,4,5)              122.4436         estimate D2E/DX2                !
 ! A11   A(3,4,8)              119.1391         estimate D2E/DX2                !
 ! A12   A(5,4,8)              118.4174         estimate D2E/DX2                !
 ! A13   A(4,5,6)              118.5544         estimate D2E/DX2                !
 ! A14   A(4,5,9)              120.758          estimate D2E/DX2                !
 ! A15   A(6,5,9)              120.6876         estimate D2E/DX2                !
 ! A16   A(1,6,5)              120.8702         estimate D2E/DX2                !
 ! A17   A(1,6,10)             119.3352         estimate D2E/DX2                !
 ! A18   A(5,6,10)             119.7945         estimate D2E/DX2                !
 ! A19   A(2,11,12)            120.0498         estimate D2E/DX2                !
 ! A20   A(2,11,13)            120.252          estimate D2E/DX2                !
 ! A21   A(12,11,13)           119.6544         estimate D2E/DX2                !
 ! A22   A(3,14,15)            120.5303         estimate D2E/DX2                !
 ! A23   A(3,14,25)            122.5394         estimate D2E/DX2                !
 ! A24   A(15,14,25)           116.9256         estimate D2E/DX2                !
 ! A25   A(14,15,16)           109.382          estimate D2E/DX2                !
 ! A26   A(14,15,17)           110.6996         estimate D2E/DX2                !
 ! A27   A(14,15,18)           112.2568         estimate D2E/DX2                !
 ! A28   A(16,15,17)           107.7747         estimate D2E/DX2                !
 ! A29   A(16,15,18)           109.3183         estimate D2E/DX2                !
 ! A30   A(17,15,18)           107.288          estimate D2E/DX2                !
 ! A31   A(15,18,19)           110.3013         estimate D2E/DX2                !
 ! A32   A(15,18,20)           111.6917         estimate D2E/DX2                !
 ! A33   A(15,18,21)           110.3186         estimate D2E/DX2                !
 ! A34   A(19,18,20)           109.2977         estimate D2E/DX2                !
 ! A35   A(19,18,21)           108.4875         estimate D2E/DX2                !
 ! A36   A(20,18,21)           106.6275         estimate D2E/DX2                !
 ! A37   A(18,20,23)           112.5749         estimate D2E/DX2                !
 ! A38   A(18,20,24)           123.2008         estimate D2E/DX2                !
 ! A39   A(23,20,24)           123.8796         estimate D2E/DX2                !
 ! A40   A(18,21,22)           117.6641         estimate D2E/DX2                !
 ! A41   A(18,21,26)           122.118          estimate D2E/DX2                !
 ! A42   A(22,21,26)           120.1325         estimate D2E/DX2                !
 ! A43   A(20,23,27)           127.7729         estimate D2E/DX2                !
 ! A44   A(21,26,28)           121.6744         estimate D2E/DX2                !
 ! A45   A(21,26,34)           115.9643         estimate D2E/DX2                !
 ! A46   A(28,26,34)           122.355          estimate D2E/DX2                !
 ! A47   A(23,27,29)           123.2877         estimate D2E/DX2                !
 ! A48   A(23,27,30)           109.6051         estimate D2E/DX2                !
 ! A49   A(29,27,30)           127.0884         estimate D2E/DX2                !
 ! A50   A(27,30,31)           109.9102         estimate D2E/DX2                !
 ! A51   A(27,30,32)           109.5385         estimate D2E/DX2                !
 ! A52   A(27,30,33)           109.6073         estimate D2E/DX2                !
 ! A53   A(31,30,32)           110.0171         estimate D2E/DX2                !
 ! A54   A(31,30,33)           107.7555         estimate D2E/DX2                !
 ! A55   A(32,30,33)           109.9894         estimate D2E/DX2                !
 ! A56   A(26,34,35)           111.8055         estimate D2E/DX2                !
 ! A57   A(26,34,36)           109.7155         estimate D2E/DX2                !
 ! A58   A(26,34,37)           109.0049         estimate D2E/DX2                !
 ! A59   A(35,34,36)           108.1507         estimate D2E/DX2                !
 ! A60   A(35,34,37)           109.4735         estimate D2E/DX2                !
 ! A61   A(36,34,37)           108.6357         estimate D2E/DX2                !
 ! D1    D(6,1,2,3)             -0.1522         estimate D2E/DX2                !
 ! D2    D(6,1,2,11)           179.779          estimate D2E/DX2                !
 ! D3    D(7,1,2,3)            179.9108         estimate D2E/DX2                !
 ! D4    D(7,1,2,11)            -0.158          estimate D2E/DX2                !
 ! D5    D(2,1,6,5)             -0.0332         estimate D2E/DX2                !
 ! D6    D(2,1,6,10)          -179.9851         estimate D2E/DX2                !
 ! D7    D(7,1,6,5)            179.9027         estimate D2E/DX2                !
 ! D8    D(7,1,6,10)            -0.0492         estimate D2E/DX2                !
 ! D9    D(1,2,3,4)              0.2716         estimate D2E/DX2                !
 ! D10   D(1,2,3,14)           179.7502         estimate D2E/DX2                !
 ! D11   D(11,2,3,4)          -179.6565         estimate D2E/DX2                !
 ! D12   D(11,2,3,14)           -0.1778         estimate D2E/DX2                !
 ! D13   D(1,2,11,12)           -1.347          estimate D2E/DX2                !
 ! D14   D(1,2,11,13)         -178.9324         estimate D2E/DX2                !
 ! D15   D(3,2,11,12)          178.5807         estimate D2E/DX2                !
 ! D16   D(3,2,11,13)            0.9953         estimate D2E/DX2                !
 ! D17   D(2,3,4,5)             -0.2204         estimate D2E/DX2                !
 ! D18   D(2,3,4,8)            179.7299         estimate D2E/DX2                !
 ! D19   D(14,3,4,5)          -179.7045         estimate D2E/DX2                !
 ! D20   D(14,3,4,8)             0.2458         estimate D2E/DX2                !
 ! D21   D(2,3,14,15)         -178.2086         estimate D2E/DX2                !
 ! D22   D(2,3,14,25)            0.9829         estimate D2E/DX2                !
 ! D23   D(4,3,14,15)            1.2613         estimate D2E/DX2                !
 ! D24   D(4,3,14,25)         -179.5471         estimate D2E/DX2                !
 ! D25   D(3,4,5,6)              0.0363         estimate D2E/DX2                !
 ! D26   D(3,4,5,9)           -179.9473         estimate D2E/DX2                !
 ! D27   D(8,4,5,6)           -179.9144         estimate D2E/DX2                !
 ! D28   D(8,4,5,9)              0.1021         estimate D2E/DX2                !
 ! D29   D(4,5,6,1)              0.0934         estimate D2E/DX2                !
 ! D30   D(4,5,6,10)          -179.955          estimate D2E/DX2                !
 ! D31   D(9,5,6,1)           -179.923          estimate D2E/DX2                !
 ! D32   D(9,5,6,10)             0.0286         estimate D2E/DX2                !
 ! D33   D(3,14,15,16)          65.3992         estimate D2E/DX2                !
 ! D34   D(3,14,15,17)         -53.2131         estimate D2E/DX2                !
 ! D35   D(3,14,15,18)        -173.074          estimate D2E/DX2                !
 ! D36   D(25,14,15,16)       -113.8365         estimate D2E/DX2                !
 ! D37   D(25,14,15,17)        127.5513         estimate D2E/DX2                !
 ! D38   D(25,14,15,18)          7.6904         estimate D2E/DX2                !
 ! D39   D(14,15,18,19)         61.7547         estimate D2E/DX2                !
 ! D40   D(14,15,18,20)        -60.0059         estimate D2E/DX2                !
 ! D41   D(14,15,18,21)       -178.4096         estimate D2E/DX2                !
 ! D42   D(16,15,18,19)       -176.682          estimate D2E/DX2                !
 ! D43   D(16,15,18,20)         61.5573         estimate D2E/DX2                !
 ! D44   D(16,15,18,21)        -56.8463         estimate D2E/DX2                !
 ! D45   D(17,15,18,19)        -60.073          estimate D2E/DX2                !
 ! D46   D(17,15,18,20)        178.1664         estimate D2E/DX2                !
 ! D47   D(17,15,18,21)         59.7628         estimate D2E/DX2                !
 ! D48   D(15,18,20,23)        128.5998         estimate D2E/DX2                !
 ! D49   D(15,18,20,24)        -57.912          estimate D2E/DX2                !
 ! D50   D(19,18,20,23)          6.262          estimate D2E/DX2                !
 ! D51   D(19,18,20,24)        179.7502         estimate D2E/DX2                !
 ! D52   D(21,18,20,23)       -110.816          estimate D2E/DX2                !
 ! D53   D(21,18,20,24)         62.6721         estimate D2E/DX2                !
 ! D54   D(15,18,21,22)         85.4972         estimate D2E/DX2                !
 ! D55   D(15,18,21,26)        -91.1434         estimate D2E/DX2                !
 ! D56   D(19,18,21,22)       -153.5778         estimate D2E/DX2                !
 ! D57   D(19,18,21,26)         29.7816         estimate D2E/DX2                !
 ! D58   D(20,18,21,22)        -35.9637         estimate D2E/DX2                !
 ! D59   D(20,18,21,26)        147.3957         estimate D2E/DX2                !
 ! D60   D(18,20,23,27)       -153.0128         estimate D2E/DX2                !
 ! D61   D(24,20,23,27)         33.5506         estimate D2E/DX2                !
 ! D62   D(18,21,26,28)          1.4177         estimate D2E/DX2                !
 ! D63   D(18,21,26,34)       -177.6894         estimate D2E/DX2                !
 ! D64   D(22,21,26,28)       -175.142          estimate D2E/DX2                !
 ! D65   D(22,21,26,34)          5.751          estimate D2E/DX2                !
 ! D66   D(20,23,27,29)          7.281          estimate D2E/DX2                !
 ! D67   D(20,23,27,30)       -174.1982         estimate D2E/DX2                !
 ! D68   D(21,26,34,35)        -43.0933         estimate D2E/DX2                !
 ! D69   D(21,26,34,36)         76.8928         estimate D2E/DX2                !
 ! D70   D(21,26,34,37)       -164.262          estimate D2E/DX2                !
 ! D71   D(28,26,34,35)        137.8063         estimate D2E/DX2                !
 ! D72   D(28,26,34,36)       -102.2076         estimate D2E/DX2                !
 ! D73   D(28,26,34,37)         16.6376         estimate D2E/DX2                !
 ! D74   D(23,27,30,31)         58.9466         estimate D2E/DX2                !
 ! D75   D(23,27,30,32)        179.9334         estimate D2E/DX2                !
 ! D76   D(23,27,30,33)        -59.3042         estimate D2E/DX2                !
 ! D77   D(29,27,30,31)       -122.6035         estimate D2E/DX2                !
 ! D78   D(29,27,30,32)         -1.6167         estimate D2E/DX2                !
 ! D79   D(29,27,30,33)        119.1457         estimate D2E/DX2                !
 --------------------------------------------------------------------------------
 Trust Radius=3.00D-01 FncErr=1.00D-07 GrdErr=1.00D-07
 Number of steps in this run=    187 maximum allowed number of steps=    222.
 GradGradGradGradGradGradGradGradGradGradGradGradGradGradGradGradGradGrad

                          Input orientation:                          
 ---------------------------------------------------------------------
 Center     Atomic      Atomic             Coordinates (Angstroms)
 Number     Number       Type             X           Y           Z
 ---------------------------------------------------------------------
      1          6           0        0.000000    0.000000    0.000000
      2          6           0        0.000000    0.000000    1.410989
      3          6           0        1.247489    0.000000    2.082400
      4          6           0        2.425330    0.005860    1.312650
      5          6           0        2.408048    0.007093   -0.058765
      6          6           0        1.170990    0.003110   -0.711896
      7          1           0       -0.943259   -0.001468   -0.512024
      8          1           0        3.373782    0.010324    1.810511
      9          1           0        3.321621    0.010755   -0.618164
     10          1           0        1.134243    0.003257   -1.784633
     11          7           0       -1.189133    0.001429    2.064152
     12          1           0       -2.035754    0.022584    1.552124
     13          1           0       -1.214679    0.017421    3.055402
     14          6           0        1.322554    0.005453    3.543350
     15          6           0        2.662934    0.046112    4.243928
     16          1           0        3.151960    0.990753    4.030967
     17          1           0        3.306098   -0.747042    3.885538
     18          6           0        2.530163   -0.125763    5.763606
     19          1           0        2.099687   -1.083044    5.994388
     20          6           0        1.681148    0.965263    6.377606
     21          7           0        3.839856   -0.042532    6.398865
     22          1           0        4.185168    0.860856    6.627595
     23          8           0        0.684427    0.471111    7.168251
     24          8           0        1.939121    2.137169    6.276458
     25          8           0        0.315103   -0.007603    4.261579
     26          6           0        4.608056   -1.141573    6.616777
     27          6           0       -0.537123    1.058009    7.461190
     28          8           0        4.246458   -2.261281    6.264721
     29          8           0       -0.928520    2.060100    6.933824
     30          6           0       -1.256858    0.235601    8.474677
     31          1           0       -0.660211    0.153212    9.373345
     32          1           0       -2.205705    0.693387    8.702457
     33          1           0       -1.411298   -0.763112    8.088487
     34          6           0        5.910298   -0.903686    7.330154
     35          1           0        6.419023   -0.024095    6.956031
     36          1           0        5.726656   -0.762728    8.389437
     37          1           0        6.543539   -1.766841    7.202139
 ---------------------------------------------------------------------
                    Distance matrix (angstroms):
                    1          2          3          4          5
     1  C    0.000000
     2  C    1.410989   0.000000
     3  C    2.427471   1.416693   0.000000
     4  C    2.757773   2.427330   1.407075   0.000000
     5  C    2.408775   2.821156   2.435474   1.371524   0.000000
     6  C    1.370410   2.424431   2.795344   2.381630   1.398895
     7  H    1.073270   2.141896   3.395646   3.831042   3.381830
     8  H    3.828899   3.397371   2.143631   1.071189   2.104007
     9  H    3.378669   3.892396   3.405170   2.128709   1.071240
    10  H    2.114576   3.390947   3.868692   3.355604   2.145044
    11  N    2.382176   1.356709   2.436690   3.691764   4.176903
    12  H    2.560058   2.040766   3.325866   4.467539   4.726794
    13  H    3.288043   2.044466   2.647510   4.035714   4.777268
    14  C    3.782130   2.509211   1.462888   2.488401   3.762118
    15  C    5.010416   3.888301   2.584147   2.941167   4.310412
    16  H    5.212019   4.216720   2.899227   2.981149   4.271639
    17  H    5.156138   4.196635   2.836768   2.821766   4.114941
    18  C    6.295769   5.036151   3.900302   4.454136   5.825167
    19  H    6.443164   5.156473   4.147635   4.817720   6.158258
    20  C    6.665722   5.331535   4.423640   5.208458   6.547774
    21  N    7.462692   6.294856   5.035281   5.279471   6.614645
    22  H    7.885538   6.743121   5.479948   5.663628   6.970974
    23  O    7.216246   5.816910   5.138566   6.126603   7.444188
    24  O    6.908083   5.656895   4.757727   5.423861   6.700161
    25  O    4.273219   2.867962   2.370279   3.626213   4.800626
    26  C    8.143655   7.045395   5.758227   5.849330   7.121961
    27  C    7.554948   6.165453   5.765033   6.905627   8.144211
    28  O    7.898894   6.834069   5.621300   5.742773   6.965037
    29  O    7.292741   5.967232   5.702222   6.860452   8.015224
    30  C    8.570610   7.178501   6.869386   8.056421   9.289961
    31  H    9.397816   7.991149   7.537949   8.632328   9.919691
    32  H    9.004370   7.649276   7.498700   8.748054   9.925560
    33  H    8.246073   6.867538   6.612456   7.824513   9.030965
    34  C    9.459357   8.413369   7.077949   7.013033   8.227478
    35  H    9.465241   8.482447   7.106168   6.913626   8.080609
    36  H   10.186216   9.059530   7.773250   7.846681   9.109221
    37  H    9.889916   8.914990   7.575065   7.401905   8.542239
                    6          7          8          9         10
     6  C    0.000000
     7  H    2.123680   0.000000
     8  H    3.348863   4.902158   0.000000
     9  H    2.152686   4.266218   2.429236   0.000000
    10  H    1.073367   2.436302   4.235640   2.478977   0.000000
    11  N    3.643710   2.587884   4.569968   5.248028   4.495689
    12  H    3.925477   2.335558   5.415718   5.780290   4.602521
    13  H    4.459165   3.577786   4.754343   5.837221   5.379923
    14  C    4.257945   4.645429   2.685199   4.616763   5.331310
    15  C    5.175706   5.968749   2.535370   4.906634   6.219508
    16  H    5.233968   6.196296   2.437390   4.754324   6.234383
    17  H    5.124238   6.160476   2.209959   4.567038   6.118067
    18  C    6.617861   7.173817   4.044400   6.432110   7.677314
    19  H    6.856854   7.263795   4.508170   6.812882   7.913615
    20  C    7.172658   7.435663   4.963393   7.248657   8.236911
    21  N    7.595252   8.404776   4.612267   7.036342   8.619285
    22  H    7.980546   8.832809   4.958432   7.346388   8.989394
    23  O    7.909012   7.865069   6.012515   8.233771   8.976377
    24  O    7.347198   7.678891   5.150379   7.346343   8.377505
    25  O    5.046593   4.936679   3.919640   5.731612   6.101458
    26  C    8.175155   9.106961   5.094162   7.438222   9.163062
    27  C    8.416043   8.053544   6.951474   9.014577   9.454692
    28  O    7.953562   8.829733   5.075601   7.306954   8.922225
    29  O    8.191225   7.725990   6.997122   8.904832   9.192229
    30  C    9.504821   8.995296   8.118170  10.182965  10.536830
    31  H   10.251239   9.890630   8.572630  10.756651  11.302346
    32  H   10.025398   9.326482   8.893603  10.857776  11.027719
    33  H    9.203371   8.646846   7.931467   9.940079  10.224754
    34  C    9.378586  10.453947   6.142946   8.409115  10.330179
    35  H    9.291915  10.486922   5.979218   8.183125  10.214149
    36  H   10.206609  11.149139   7.029644   9.355178  11.188775
    37  H    9.727742  10.893897   6.501948   8.642786  10.637472
                   11         12         13         14         15
    11  N    0.000000
    12  H    0.989640   0.000000
    13  H    0.991708   1.712902   0.000000
    14  C    2.914895   3.904293   2.583755   0.000000
    15  C    4.426267   5.415167   4.055774   1.512971   0.000000
    16  H    4.867464   5.830471   4.578934   2.134318   1.084825
    17  H    4.907622   5.879841   4.659502   2.148904   1.082218
    18  C    5.247409   6.213388   4.623713   2.530825   1.535119
    19  H    5.238241   6.169116   4.564393   2.792194   2.157858
    20  C    5.270045   6.163544   4.507911   3.013773   2.522166
    21  N    6.639457   7.616950   6.060583   3.806977   2.456981
    22  H    7.102586   8.072358   6.529188   4.294047   2.943276
    23  O    5.457348   6.256312   4.552797   3.709979   3.556231
    24  O    5.664881   6.526134   4.981465   3.520546   3.004597
    25  O    2.662985   3.587281   1.948261   1.237328   2.348512
    26  C    7.459239   8.434820   6.923215   4.642860   3.290062
    27  C    5.538004   6.183450   4.577431   4.462705   4.649201
    28  O    7.232584   8.178679   6.731733   4.592728   3.451842
    29  O    5.293368   5.860044   4.392787   4.558971   4.918356
    30  C    6.415158   6.969490   5.423830   5.569947   5.770608
    31  H    7.329877   7.942335   6.343681   6.159710   6.112748
    32  H    6.751246   7.183740   5.773067   6.287945   6.633333
    33  H    6.076717   6.612965   5.097042   5.359375   5.659933
    34  C    8.885490   9.868300   8.359859   6.017792   4.579550
    35  H    9.045173  10.034323   8.572633   6.133617   4.633426
    36  H    9.403260  10.374034   8.788783   6.593237   5.217841
    37  H    9.450920  10.427319   8.976022   6.617133   5.205469
                   16         17         18         19         20
    16  H    0.000000
    17  H    1.750668   0.000000
    18  C    2.152970   2.124900   0.000000
    19  H    3.043507   2.452667   1.074689   0.000000
    20  C    2.769594   3.432616   1.512667   2.125462   0.000000
    21  N    2.673541   2.664215   1.458004   2.067475   2.382461
    22  H    2.797654   3.298026   2.111618   2.920433   2.518632
    23  O    4.025084   4.374158   2.395001   2.407553   1.364830
    24  O    2.797763   3.987956   2.394412   3.236528   1.204220
    25  O    3.016232   3.103905   2.678907   2.709971   2.700022
    26  C    3.654236   3.051297   2.465240   2.585094   3.614243
    27  C    5.037885   5.551021   3.700183   3.699781   2.470523
    28  O    4.094301   2.972828   2.785178   2.463727   4.123608
    29  O    5.120586   5.924870   4.255573   4.464519   2.884167
    30  C    6.305116   6.545712   4.671404   4.376876   3.682661
    31  H    6.616278   6.830673   4.825612   4.534613   3.887910
    32  H    7.114480   7.460397   5.633499   5.387555   4.537233
    33  H    6.353175   6.318138   4.620217   4.100563   3.934161
    34  C    4.699145   4.321085   3.805857   4.041930   4.720808
    35  H    4.501068   4.431803   4.068837   4.550032   4.874511
    36  H    5.357240   5.113165   4.185484   4.358184   4.837308
    37  H    5.400321   4.745614   4.568336   4.655541   5.638004
                   21         22         23         24         25
    21  N    0.000000
    22  H    0.993815   0.000000
    23  O    3.288239   3.563622   0.000000
    24  O    2.894628   2.607105   2.268326   0.000000
    25  O    4.122268   4.618404   2.968890   3.361134   0.000000
    26  C    1.358495   2.046625   4.277820   4.241365   5.026161
    27  C    4.636558   4.799352   1.386523   2.949569   3.478409
    28  O    2.259682   3.143751   4.579345   4.966920   4.954513
    29  O    5.238764   5.261347   2.276278   2.943032   3.600401
    30  C    5.510249   5.780856   2.351765   4.320001   4.503377
    31  H    5.397819   5.614054   2.602221   4.503701   5.206463
    32  H    6.511292   6.721336   3.279643   5.014934   5.154344
    33  H    5.563153   6.007654   2.600424   4.787524   4.265733
    34  C    2.428089   2.565788   5.406109   5.111489   6.444015
    35  H    2.638726   2.425101   5.759849   5.020199   6.672195
    36  H    2.835679   2.848912   5.332704   5.217231   6.847944
    37  H    3.305812   3.577262   6.272063   6.107277   7.108814
                   26         27         28         29         30
    26  C    0.000000
    27  C    5.658981   0.000000
    28  O    1.228187   5.944062   0.000000
    29  O    6.403507   1.198120   6.775133   0.000000
    30  C    6.304412   1.490480   6.434657   2.410567   0.000000
    31  H    6.085210   2.118997   6.290368   3.107970   1.081840
    32  H    7.358294   2.111365   7.503535   2.574330   1.077852
    33  H    6.208203   2.115223   6.130321   3.088179   1.081861
    34  C    1.503772   6.740524   2.397202   7.463950   7.346838
    35  H    2.154866   7.057910   3.194205   7.637457   7.828976
    36  H    2.130050   6.588752   2.991834   7.374181   7.055026
    37  H    2.116531   7.627756   2.529784   8.399353   8.153239
                   31         32         33         34         35
    31  H    0.000000
    32  H    1.769302   0.000000
    33  H    1.747754   1.769020   0.000000
    34  C    6.961556   8.384711   7.362106   0.000000
    35  H    7.482674   8.828971   7.946227   1.082797   0.000000
    36  H    6.526799   8.070974   7.144296   1.084285   1.754880
    37  H    7.764970   9.211566   8.066754   1.078155   1.764437
                   36         37
    36  H    0.000000
    37  H    1.756478   0.000000
 Stoichiometry    C14H16N2O5
 Framework group  C1[X(C14H16N2O5)]
 Deg. of freedom   105
 Full point group                 C1      NOp   1
 Largest Abelian subgroup         C1      NOp   1
 Largest concise Abelian subgroup C1      NOp   1
                         Standard orientation:                         
 ---------------------------------------------------------------------
 Center     Atomic      Atomic             Coordinates (Angstroms)
 Number     Number       Type             X           Y           Z
 ---------------------------------------------------------------------
      1          6           0        4.801230    0.471762   -0.236204
      2          6           0        3.426414    0.771857   -0.339718
      3          6           0        2.491662   -0.245211   -0.025344
      4          6           0        2.976750   -1.502275    0.380045
      5          6           0        4.316885   -1.777514    0.476794
      6          6           0        5.231505   -0.767453    0.160321
      7          1           0        5.512271    1.239427   -0.474991
      8          1           0        2.278322   -2.276880    0.624242
      9          1           0        4.656462   -2.744793    0.787623
     10          1           0        6.285004   -0.961397    0.228448
     11          7           0        3.057418    2.016813   -0.732893
     12          1           0        3.746589    2.701426   -0.921934
     13          1           0        2.097227    2.256194   -0.797808
     14          6           0        1.051250   -0.002644   -0.105442
     15          6           0        0.066935   -1.087657    0.272648
     16          1           0        0.158586   -1.303748    1.331775
     17          1           0        0.276421   -2.000225   -0.270059
     18          6           0       -1.382856   -0.692652   -0.041468
     19          1           0       -1.504960   -0.531006   -1.096891
     20          6           0       -1.796955    0.555188    0.706581
     21          7           0       -2.296890   -1.750231    0.373072
     22          1           0       -2.603029   -1.751159    1.318559
     23          8           0       -2.340101    1.501558   -0.113258
     24          8           0       -1.763700    0.645999    1.906911
     25          8           0        0.578087    1.082877   -0.464247
     26          6           0       -2.675150   -2.748407   -0.467209
     27          6           0       -2.354456    2.875983    0.068940
     28          8           0       -2.243839   -2.823574   -1.614712
     29          8           0       -1.758814    3.428871    0.949291
     30          6           0       -3.174985    3.513570   -0.999585
     31          1           0       -4.184285    3.125205   -0.970176
     32          1           0       -3.186379    4.581789   -0.856259
     33          1           0       -2.757756    3.274897   -1.968800
     34          6           0       -3.664585   -3.735968    0.086933
     35          1           0       -3.419929   -4.024199    1.101583
     36          1           0       -4.656287   -3.297572    0.090131
     37          1           0       -3.676901   -4.611349   -0.542332
 ---------------------------------------------------------------------
 Rotational constants (GHZ):      0.3644705      0.2008915      0.1418720
 Standard basis: 6-31G(d) (6D, 7F)
 There are   347 symmetry adapted cartesian basis functions of A   symmetry.
 There are   347 symmetry adapted basis functions of A   symmetry.
   347 basis functions,   652 primitive gaussians,   347 cartesian basis functions
    77 alpha electrons       77 beta electrons
       nuclear repulsion energy      1666.0766417268 Hartrees.
 NAtoms=   37 NActive=   37 NUniq=   37 SFac= 1.00D+00 NAtFMM=   60 NAOKFM=F Big=F
 Integral buffers will be    131072 words long.
 Raffenetti 1 integral format.
 Two-electron integral symmetry is turned on.
 One-electron integrals computed using PRISM.
 NBasis=   347 RedAO= T EigKep=  3.52D-04  NBF=   347
 NBsUse=   347 1.00D-06 EigRej= -1.00D+00 NBFU=   347
 ExpMin= 1.61D-01 ExpMax= 5.48D+03 ExpMxC= 8.25D+02 IAcc=1 IRadAn=         1 AccDes= 0.00D+00
 Harris functional with IExCor=  205 and IRadAn=       1 diagonalized for initial guess.
 HarFok:  IExCor=  205 AccDes= 0.00D+00 IRadAn=         1 IDoV= 1 UseB2=F ITyADJ=14
 ICtDFT=  3500011 ScaDFX=  1.000000  1.000000  1.000000  1.000000
 FoFCou: FMM=F IPFlag=           0 FMFlag=      100000 FMFlg1=           0
         NFxFlg=           0 DoJE=T BraDBF=F KetDBF=T FulRan=T
         wScrn=  0.000000 ICntrl=     500 IOpCl=  0 I1Cent=   200000004 NGrid=           0
         NMat0=    1 NMatS0=      1 NMatT0=    0 NMatD0=    1 NMtDS0=    0 NMtDT0=    0
 Petite list used in FoFCou.
 Requested convergence on RMS density matrix=1.00D-08 within 128 cycles.
 Requested convergence on MAX density matrix=1.00D-06.
 Requested convergence on             energy=1.00D-06.
 No special actions if energy rises.
 Integral accuracy reduced to 1.0D-05 until final iterations.
 Initial convergence to 1.0D-05 achieved.  Increase integral accuracy.
 SCF Done:  E(RHF) =  -1022.73813129     A.U. after   16 cycles
            NFock= 16  Conv=0.82D-08     -V/T= 2.0021

 **********************************************************************

            Population analysis using the SCF density.

 **********************************************************************

 Orbital symmetries:
 BldTbl:  Degeneracy threshold= 1.00D-02
       Occupied  (A) (A) (A) (A) (A) (A) (A) (A) (A) (A) (A) (A)
                 (A) (A) (A) (A) (A) (A) (A) (A) (A) (A) (A) (A)
                 (A) (A) (A) (A) (A) (A) (A) (A) (A) (A) (A) (A)
                 (A) (A) (A) (A) (A) (A) (A) (A) (A) (A) (A) (A)
                 (A) (A) (A) (A) (A) (A) (A) (A) (A) (A) (A) (A)
                 (A) (A) (A) (A) (A) (A) (A) (A) (A) (A) (A) (A)
                 (A) (A) (A) (A) (A)
       Virtual   (A) (A) (A) (A) (A) (A) (A) (A) (A) (A) (A) (A)
                 (A) (A) (A) (A) (A) (A) (A) (A) (A) (A) (A) (A)
                 (A) (A) (A) (A) (A) (A) (A) (A) (A) (A) (A) (A)
                 (A) (A) (A) (A) (A) (A) (A) (A) (A) (A) (A) (A)
                 (A) (A) (A) (A) (A) (A) (A) (A) (A) (A) (A) (A)
                 (A) (A) (A) (A) (A) (A) (A) (A) (A) (A) (A) (A)
                 (A) (A) (A) (A) (A) (A) (A) (A) (A) (A) (A) (A)
                 (A) (A) (A) (A) (A) (A) (A) (A) (A) (A) (A) (A)
                 (A) (A) (A) (A) (A) (A) (A) (A) (A) (A) (A) (A)
                 (A) (A) (A) (A) (A) (A) (A) (A) (A) (A) (A) (A)
                 (A) (A) (A) (A) (A) (A) (A) (A) (A) (A) (A) (A)
                 (A) (A) (A) (A) (A) (A) (A) (A) (A) (A) (A) (A)
                 (A) (A) (A) (A) (A) (A) (A) (A) (A) (A) (A) (A)
                 (A) (A) (A) (A) (A) (A) (A) (A) (A) (A) (A) (A)
                 (A) (A) (A) (A) (A) (A) (A) (A) (A) (A) (A) (A)
                 (A) (A) (A) (A) (A) (A) (A) (A) (A) (A) (A) (A)
                 (A) (A) (A) (A) (A) (A) (A) (A) (A) (A) (A) (A)
                 (A) (A) (A) (A) (A) (A) (A) (A) (A) (A) (A) (A)
                 (A) (A) (A) (A) (A) (A) (A) (A) (A) (A) (A) (A)
                 (A) (A) (A) (A) (A) (A) (A) (A) (A) (A) (A) (A)
                 (A) (A) (A) (A) (A) (A) (A) (A) (A) (A) (A) (A)
                 (A) (A) (A) (A) (A) (A) (A) (A) (A) (A) (A) (A)
                 (A) (A) (A) (A) (A) (A)
 The electronic state is 1-A.
 Alpha  occ. eigenvalues --  -20.62630 -20.56751 -20.56398 -20.55592 -20.52913
 Alpha  occ. eigenvalues --  -15.60049 -15.56725 -11.40202 -11.39997 -11.36117
 Alpha  occ. eigenvalues --  -11.34441 -11.30545 -11.29459 -11.25347 -11.25288
 Alpha  occ. eigenvalues --  -11.24791 -11.24499 -11.24064 -11.23636 -11.22973
 Alpha  occ. eigenvalues --  -11.22394  -1.48840  -1.40786  -1.38623  -1.38208
 Alpha  occ. eigenvalues --   -1.36313  -1.24818  -1.23957  -1.14459  -1.08445
 Alpha  occ. eigenvalues --   -1.05109  -1.03919  -1.00895  -1.00158  -0.95554
 Alpha  occ. eigenvalues --   -0.88445  -0.86150  -0.83184  -0.80712  -0.77462
 Alpha  occ. eigenvalues --   -0.74855  -0.72465  -0.71751  -0.70214  -0.69521
 Alpha  occ. eigenvalues --   -0.68825  -0.67570  -0.67056  -0.65486  -0.64559
 Alpha  occ. eigenvalues --   -0.63756  -0.62462  -0.62211  -0.61137  -0.60048
 Alpha  occ. eigenvalues --   -0.59473  -0.58966  -0.58245  -0.57687  -0.56541
 Alpha  occ. eigenvalues --   -0.56362  -0.55824  -0.54258  -0.53353  -0.51704
 Alpha  occ. eigenvalues --   -0.51109  -0.50869  -0.49834  -0.47156  -0.46947
 Alpha  occ. eigenvalues --   -0.45124  -0.44106  -0.42838  -0.42288  -0.39477
 Alpha  occ. eigenvalues --   -0.35266  -0.29217
 Alpha virt. eigenvalues --    0.08581   0.14559   0.15738   0.18759   0.20431
 Alpha virt. eigenvalues --    0.21088   0.22257   0.23491   0.24434   0.24869
 Alpha virt. eigenvalues --    0.26100   0.27228   0.29187   0.29631   0.29966
 Alpha virt. eigenvalues --    0.30503   0.31876   0.32516   0.32641   0.33529
 Alpha virt. eigenvalues --    0.34009   0.34877   0.36499   0.38661   0.39077
 Alpha virt. eigenvalues --    0.39373   0.40868   0.42200   0.44263   0.44956
 Alpha virt. eigenvalues --    0.46233   0.47174   0.48481   0.50039   0.50731
 Alpha virt. eigenvalues --    0.52247   0.52788   0.55940   0.56024   0.59172
 Alpha virt. eigenvalues --    0.60012   0.62450   0.69136   0.70873   0.70992
 Alpha virt. eigenvalues --    0.72622   0.73199   0.73992   0.74153   0.74985
 Alpha virt. eigenvalues --    0.75654   0.77123   0.78282   0.78966   0.79569
 Alpha virt. eigenvalues --    0.80386   0.80443   0.81056   0.81689   0.82078
 Alpha virt. eigenvalues --    0.82401   0.83320   0.84448   0.85364   0.85760
 Alpha virt. eigenvalues --    0.87192   0.88801   0.90085   0.91406   0.91760
 Alpha virt. eigenvalues --    0.92460   0.93661   0.94332   0.95130   0.96426
 Alpha virt. eigenvalues --    0.97823   0.99347   1.00078   1.00658   1.02506
 Alpha virt. eigenvalues --    1.04455   1.06273   1.06695   1.08754   1.09471
 Alpha virt. eigenvalues --    1.09831   1.10268   1.11121   1.11409   1.11930
 Alpha virt. eigenvalues --    1.13020   1.13668   1.14494   1.15774   1.16859
 Alpha virt. eigenvalues --    1.17157   1.17549   1.18026   1.18764   1.19552
 Alpha virt. eigenvalues --    1.19769   1.20787   1.21366   1.21783   1.22393
 Alpha virt. eigenvalues --    1.22598   1.23615   1.25718   1.26818   1.28463
 Alpha virt. eigenvalues --    1.28904   1.30335   1.31907   1.32588   1.33946
 Alpha virt. eigenvalues --    1.34751   1.36369   1.37052   1.39048   1.40482
 Alpha virt. eigenvalues --    1.42179   1.43860   1.45525   1.46915   1.49154
 Alpha virt. eigenvalues --    1.49505   1.51224   1.54542   1.55788   1.58555
 Alpha virt. eigenvalues --    1.59245   1.60207   1.64200   1.64767   1.65497
 Alpha virt. eigenvalues --    1.65796   1.68290   1.69186   1.69776   1.71117
 Alpha virt. eigenvalues --    1.71834   1.73567   1.75272   1.77271   1.77394
 Alpha virt. eigenvalues --    1.80151   1.82547   1.83059   1.86358   1.88717
 Alpha virt. eigenvalues --    1.89889   1.91532   1.94302   1.95201   1.97053
 Alpha virt. eigenvalues --    1.98480   1.99524   2.03132   2.04200   2.05267
 Alpha virt. eigenvalues --    2.06293   2.07276   2.07976   2.09154   2.09552
 Alpha virt. eigenvalues --    2.09572   2.11191   2.12298   2.14009   2.15426
 Alpha virt. eigenvalues --    2.16535   2.17921   2.19158   2.20562   2.21753
 Alpha virt. eigenvalues --    2.23153   2.23648   2.24362   2.24798   2.26492
 Alpha virt. eigenvalues --    2.27880   2.28341   2.28921   2.31277   2.32483
 Alpha virt. eigenvalues --    2.34819   2.35228   2.37075   2.37424   2.39950
 Alpha virt. eigenvalues --    2.42168   2.43503   2.45178   2.48367   2.50710
 Alpha virt. eigenvalues --    2.51361   2.51887   2.53973   2.54554   2.55263
 Alpha virt. eigenvalues --    2.57188   2.59715   2.60190   2.61751   2.63691
 Alpha virt. eigenvalues --    2.64501   2.66184   2.70041   2.70381   2.72371
 Alpha virt. eigenvalues --    2.74186   2.74925   2.75938   2.79164   2.80564
 Alpha virt. eigenvalues --    2.81594   2.82968   2.83963   2.86934   2.90231
 Alpha virt. eigenvalues --    2.91878   2.94283   2.95421   2.98197   2.99488
 Alpha virt. eigenvalues --    3.01030   3.02377   3.04331   3.06916   3.08111
 Alpha virt. eigenvalues --    3.09870   3.12665   3.13610   3.17278   3.21347
 Alpha virt. eigenvalues --    3.23301   3.26675   3.29324   3.30903   3.33460
 Alpha virt. eigenvalues --    3.35243   3.36631   3.40599   3.41108   3.44117
 Alpha virt. eigenvalues --    3.53541   3.64291   3.67703   3.83089   4.31541
 Alpha virt. eigenvalues --    4.41708   4.43852   4.46198   4.48002   4.51185
 Alpha virt. eigenvalues --    4.52102   4.54872   4.56541   4.60302   4.63118
 Alpha virt. eigenvalues --    4.68610   4.77027   4.79199   4.82220   4.88515
 Alpha virt. eigenvalues --    4.89844   4.95509   5.10877   5.14165   5.19265
          Condensed to atoms (all electrons):
               1          2          3          4          5          6
     1  C    5.010752   0.528838  -0.036757  -0.039991  -0.051008   0.573409
     2  C    0.528838   4.378083   0.549571  -0.034418  -0.027200  -0.029632
     3  C   -0.036757   0.549571   5.081573   0.508165  -0.043964  -0.029790
     4  C   -0.039991  -0.034418   0.508165   4.895137   0.571182  -0.042433
     5  C   -0.051008  -0.027200  -0.043964   0.571182   4.947118   0.522860
     6  C    0.573409  -0.029632  -0.029790  -0.042433   0.522860   4.827483
     7  H    0.380122  -0.036222   0.002549   0.000265   0.002435  -0.024930
     8  H    0.000340   0.001496  -0.033158   0.380440  -0.026068   0.002837
     9  H    0.002431   0.000415   0.001500  -0.028519   0.385806  -0.029351
    10  H   -0.029140   0.001600   0.000479   0.002741  -0.028693   0.380256
    11  N   -0.073211   0.338709  -0.059935   0.003947   0.000161   0.003099
    12  H   -0.001152  -0.031911   0.002779  -0.000081   0.000004   0.000102
    13  H    0.002962  -0.012000  -0.006731  -0.000115   0.000014  -0.000097
    14  C    0.003923  -0.036593   0.404892  -0.039967   0.002648  -0.000362
    15  C    0.000001   0.003709  -0.101065  -0.003051  -0.000006  -0.000023
    16  H   -0.000002  -0.000182  -0.000046  -0.001326  -0.000001   0.000001
    17  H   -0.000008  -0.000124   0.001038  -0.001839   0.000065   0.000002
    18  C    0.000000  -0.000066   0.003788   0.000283   0.000000   0.000000
    19  H    0.000000   0.000002  -0.000073  -0.000011   0.000000   0.000000
    20  C    0.000000  -0.000001   0.000334  -0.000024   0.000000   0.000000
    21  N    0.000000   0.000000  -0.000045  -0.000009   0.000000   0.000000
    22  H    0.000000   0.000000   0.000000   0.000000   0.000000   0.000000
    23  O    0.000000   0.000000  -0.000020   0.000000   0.000000   0.000000
    24  O    0.000000   0.000002  -0.000009   0.000000   0.000000   0.000000
    25  O    0.000326  -0.000605  -0.066085   0.002776  -0.000042  -0.000008
    26  C    0.000000   0.000000  -0.000004   0.000000   0.000000   0.000000
    27  C    0.000000   0.000000   0.000003   0.000000   0.000000   0.000000
    28  O    0.000000   0.000000   0.000001   0.000000   0.000000   0.000000
    29  O    0.000000   0.000000   0.000000   0.000000   0.000000   0.000000
    30  C    0.000000   0.000000   0.000000   0.000000   0.000000   0.000000
    31  H    0.000000   0.000000   0.000000   0.000000   0.000000   0.000000
    32  H    0.000000   0.000000   0.000000   0.000000   0.000000   0.000000
    33  H    0.000000   0.000000   0.000000   0.000000   0.000000   0.000000
    34  C    0.000000   0.000000   0.000000   0.000000   0.000000   0.000000
    35  H    0.000000   0.000000   0.000000   0.000000   0.000000   0.000000
    36  H    0.000000   0.000000   0.000000   0.000000   0.000000   0.000000
    37  H    0.000000   0.000000   0.000000   0.000000   0.000000   0.000000
               7          8          9         10         11         12
     1  C    0.380122   0.000340   0.002431  -0.029140  -0.073211  -0.001152
     2  C   -0.036222   0.001496   0.000415   0.001600   0.338709  -0.031911
     3  C    0.002549  -0.033158   0.001500   0.000479  -0.059935   0.002779
     4  C    0.000265   0.380440  -0.028519   0.002741   0.003947  -0.000081
     5  C    0.002435  -0.026068   0.385806  -0.028693   0.000161   0.000004
     6  C   -0.024930   0.002837  -0.029351   0.380256   0.003099   0.000102
     7  H    0.476636   0.000011  -0.000116  -0.001943  -0.002647   0.004010
     8  H    0.000011   0.463259  -0.001552  -0.000128  -0.000064   0.000002
     9  H   -0.000116  -0.001552   0.467728  -0.001309   0.000004   0.000000
    10  H   -0.001943  -0.000128  -0.001309   0.463521  -0.000096  -0.000010
    11  N   -0.002647  -0.000064   0.000004  -0.000096   7.154309   0.334440
    12  H    0.004010   0.000002   0.000000  -0.000010   0.334440   0.319337
    13  H    0.000006  -0.000005   0.000000   0.000001   0.300883  -0.011753
    14  C   -0.000093  -0.004010  -0.000084   0.000007  -0.006693  -0.000033
    15  C    0.000001   0.000966   0.000002   0.000000  -0.000301   0.000009
    16  H    0.000000  -0.000866  -0.000001   0.000000   0.000005   0.000000
    17  H    0.000000  -0.000229  -0.000003   0.000000   0.000006   0.000000
    18  C    0.000000   0.000218   0.000000   0.000000   0.000009   0.000000
    19  H    0.000000  -0.000006   0.000000   0.000000  -0.000001   0.000000
    20  C    0.000000  -0.000005   0.000000   0.000000   0.000001   0.000000
    21  N    0.000000   0.000000   0.000000   0.000000   0.000000   0.000000
    22  H    0.000000  -0.000001   0.000000   0.000000   0.000000   0.000000
    23  O    0.000000   0.000000   0.000000   0.000000   0.000000   0.000000
    24  O    0.000000  -0.000001   0.000000   0.000000   0.000000   0.000000
    25  O    0.000005   0.000066   0.000000   0.000000  -0.025919   0.000643
    26  C    0.000000  -0.000006   0.000000   0.000000   0.000000   0.000000
    27  C    0.000000   0.000000   0.000000   0.000000  -0.000002   0.000000
    28  O    0.000000  -0.000003   0.000000   0.000000   0.000000   0.000000
    29  O    0.000000   0.000000   0.000000   0.000000  -0.000001   0.000000
    30  C    0.000000   0.000000   0.000000   0.000000   0.000000   0.000000
    31  H    0.000000   0.000000   0.000000   0.000000   0.000000   0.000000
    32  H    0.000000   0.000000   0.000000   0.000000   0.000000   0.000000
    33  H    0.000000   0.000000   0.000000   0.000000   0.000000   0.000000
    34  C    0.000000   0.000000   0.000000   0.000000   0.000000   0.000000
    35  H    0.000000   0.000000   0.000000   0.000000   0.000000   0.000000
    36  H    0.000000   0.000000   0.000000   0.000000   0.000000   0.000000
    37  H    0.000000   0.000000   0.000000   0.000000   0.000000   0.000000
              13         14         15         16         17         18
     1  C    0.002962   0.003923   0.000001  -0.000002  -0.000008   0.000000
     2  C   -0.012000  -0.036593   0.003709  -0.000182  -0.000124  -0.000066
     3  C   -0.006731   0.404892  -0.101065  -0.000046   0.001038   0.003788
     4  C   -0.000115  -0.039967  -0.003051  -0.001326  -0.001839   0.000283
     5  C    0.000014   0.002648  -0.000006  -0.000001   0.000065   0.000000
     6  C   -0.000097  -0.000362  -0.000023   0.000001   0.000002   0.000000
     7  H    0.000006  -0.000093   0.000001   0.000000   0.000000   0.000000
     8  H   -0.000005  -0.004010   0.000966  -0.000866  -0.000229   0.000218
     9  H    0.000000  -0.000084   0.000002  -0.000001  -0.000003   0.000000
    10  H    0.000001   0.000007   0.000000   0.000000   0.000000   0.000000
    11  N    0.300883  -0.006693  -0.000301   0.000005   0.000006   0.000009
    12  H   -0.011753  -0.000033   0.000009   0.000000   0.000000   0.000000
    13  H    0.246289  -0.001065   0.000565  -0.000016  -0.000012  -0.000011
    14  C   -0.001065   4.322462   0.347738  -0.024915  -0.024105  -0.043536
    15  C    0.000565   0.347738   5.324189   0.376314   0.385014   0.341322
    16  H   -0.000016  -0.024915   0.376314   0.476510  -0.020447  -0.031007
    17  H   -0.000012  -0.024105   0.385014  -0.020447   0.461248  -0.034293
    18  C   -0.000011  -0.043536   0.341322  -0.031007  -0.034293   5.002141
    19  H   -0.000002  -0.000363  -0.031515   0.003097  -0.002978   0.401106
    20  C    0.000003   0.002589  -0.061379  -0.004651   0.004124   0.363878
    21  N    0.000000   0.002903  -0.063565   0.000521  -0.004180   0.180328
    22  H    0.000000  -0.000091   0.002033   0.001024  -0.000128  -0.023982
    23  O   -0.000003  -0.000726   0.002713   0.000095  -0.000050  -0.072667
    24  O    0.000000  -0.000166   0.003903   0.004931  -0.000019  -0.077829
    25  O    0.027186   0.500465  -0.090166   0.000796   0.001609   0.003039
    26  C    0.000000   0.000029  -0.003257   0.000396   0.001630  -0.026058
    27  C    0.000021   0.000026  -0.000116  -0.000002   0.000001   0.002226
    28  O    0.000000  -0.000040  -0.002650  -0.000016   0.003732   0.006916
    29  O    0.000012   0.000063   0.000022   0.000001   0.000000  -0.000176
    30  C    0.000000   0.000001   0.000006   0.000000   0.000000  -0.000223
    31  H    0.000000   0.000000   0.000000   0.000000   0.000000  -0.000001
    32  H    0.000000   0.000000   0.000000   0.000000   0.000000   0.000003
    33  H    0.000000  -0.000001   0.000000   0.000000   0.000000  -0.000002
    34  C    0.000000   0.000000  -0.000290  -0.000014   0.000095   0.004670
    35  H    0.000000   0.000000   0.000030   0.000001  -0.000024  -0.000092
    36  H    0.000000   0.000000  -0.000001   0.000000   0.000001  -0.000215
    37  H    0.000000   0.000000   0.000008   0.000000  -0.000001  -0.000081
              19         20         21         22         23         24
     1  C    0.000000   0.000000   0.000000   0.000000   0.000000   0.000000
     2  C    0.000002  -0.000001   0.000000   0.000000   0.000000   0.000002
     3  C   -0.000073   0.000334  -0.000045   0.000000  -0.000020  -0.000009
     4  C   -0.000011  -0.000024  -0.000009   0.000000   0.000000   0.000000
     5  C    0.000000   0.000000   0.000000   0.000000   0.000000   0.000000
     6  C    0.000000   0.000000   0.000000   0.000000   0.000000   0.000000
     7  H    0.000000   0.000000   0.000000   0.000000   0.000000   0.000000
     8  H   -0.000006  -0.000005   0.000000  -0.000001   0.000000  -0.000001
     9  H    0.000000   0.000000   0.000000   0.000000   0.000000   0.000000
    10  H    0.000000   0.000000   0.000000   0.000000   0.000000   0.000000
    11  N   -0.000001   0.000001   0.000000   0.000000   0.000000   0.000000
    12  H    0.000000   0.000000   0.000000   0.000000   0.000000   0.000000
    13  H   -0.000002   0.000003   0.000000   0.000000  -0.000003   0.000000
    14  C   -0.000363   0.002589   0.002903  -0.000091  -0.000726  -0.000166
    15  C   -0.031515  -0.061379  -0.063565   0.002033   0.002713   0.003903
    16  H    0.003097  -0.004651   0.000521   0.001024   0.000095   0.004931
    17  H   -0.002978   0.004124  -0.004180  -0.000128  -0.000050  -0.000019
    18  C    0.401106   0.363878   0.180328  -0.023982  -0.072667  -0.077829
    19  H    0.413252  -0.038620  -0.033756   0.002328   0.004687   0.002391
    20  C   -0.038620   4.132608  -0.041558  -0.003397   0.217194   0.561075
    21  N   -0.033756  -0.041558   7.435638   0.316088   0.002630  -0.001005
    22  H    0.002328  -0.003397   0.316088   0.305250   0.000320   0.008189
    23  O    0.004687   0.217194   0.002630   0.000320   8.567536  -0.072416
    24  O    0.002391   0.561075  -0.001005   0.008189  -0.072416   8.117604
    25  O    0.002412   0.008060   0.000403   0.000010  -0.002057  -0.002175
    26  C    0.000023   0.003748   0.250108  -0.014108  -0.000088   0.000181
    27  C    0.000013  -0.004436  -0.000075   0.000001   0.192076   0.001758
    28  O    0.007713   0.000509  -0.105911   0.002102  -0.000002  -0.000002
    29  O    0.000012   0.005091   0.000000   0.000000  -0.074947  -0.002186
    30  C   -0.000041   0.001611   0.000005   0.000000  -0.092162  -0.000128
    31  H    0.000001  -0.000026   0.000000   0.000000   0.002623   0.000011
    32  H    0.000000  -0.000018   0.000000   0.000000   0.003184   0.000006
    33  H    0.000021  -0.000123   0.000000   0.000000   0.002203   0.000001
    34  C    0.000355  -0.000027  -0.117784  -0.000623   0.000000  -0.000009
    35  H   -0.000009  -0.000016   0.004003   0.000822   0.000000  -0.000001
    36  H   -0.000016   0.000005   0.000891   0.000204   0.000000   0.000000
    37  H   -0.000006   0.000000   0.004224  -0.000030   0.000000   0.000000
              25         26         27         28         29         30
     1  C    0.000326   0.000000   0.000000   0.000000   0.000000   0.000000
     2  C   -0.000605   0.000000   0.000000   0.000000   0.000000   0.000000
     3  C   -0.066085  -0.000004   0.000003   0.000001   0.000000   0.000000
     4  C    0.002776   0.000000   0.000000   0.000000   0.000000   0.000000
     5  C   -0.000042   0.000000   0.000000   0.000000   0.000000   0.000000
     6  C   -0.000008   0.000000   0.000000   0.000000   0.000000   0.000000
     7  H    0.000005   0.000000   0.000000   0.000000   0.000000   0.000000
     8  H    0.000066  -0.000006   0.000000  -0.000003   0.000000   0.000000
     9  H    0.000000   0.000000   0.000000   0.000000   0.000000   0.000000
    10  H    0.000000   0.000000   0.000000   0.000000   0.000000   0.000000
    11  N   -0.025919   0.000000  -0.000002   0.000000  -0.000001   0.000000
    12  H    0.000643   0.000000   0.000000   0.000000   0.000000   0.000000
    13  H    0.027186   0.000000   0.000021   0.000000   0.000012   0.000000
    14  C    0.500465   0.000029   0.000026  -0.000040   0.000063   0.000001
    15  C   -0.090166  -0.003257  -0.000116  -0.002650   0.000022   0.000006
    16  H    0.000796   0.000396  -0.000002  -0.000016   0.000001   0.000000
    17  H    0.001609   0.001630   0.000001   0.003732   0.000000   0.000000
    18  C    0.003039  -0.026058   0.002226   0.006916  -0.000176  -0.000223
    19  H    0.002412   0.000023   0.000013   0.007713   0.000012  -0.000041
    20  C    0.008060   0.003748  -0.004436   0.000509   0.005091   0.001611
    21  N    0.000403   0.250108  -0.000075  -0.105911   0.000000   0.000005
    22  H    0.000010  -0.014108   0.000001   0.002102   0.000000   0.000000
    23  O   -0.002057  -0.000088   0.192076  -0.000002  -0.074947  -0.092162
    24  O   -0.002175   0.000181   0.001758  -0.000002  -0.002186  -0.000128
    25  O    8.295000  -0.000002   0.001991   0.000001  -0.000150  -0.000044
    26  C   -0.000002   4.162261   0.000001   0.596683   0.000000   0.000000
    27  C    0.001991   0.000001   4.126823   0.000000   0.609919   0.380390
    28  O    0.000001   0.596683   0.000000   8.180778   0.000000   0.000000
    29  O   -0.000150   0.000000   0.609919   0.000000   8.027619  -0.060490
    30  C   -0.000044   0.000000   0.380390   0.000000  -0.060490   5.202594
    31  H    0.000000   0.000000  -0.029713   0.000000   0.001035   0.376038
    32  H    0.000000   0.000000  -0.036532   0.000000   0.002497   0.384586
    33  H    0.000029   0.000000  -0.029032   0.000000   0.000776   0.377493
    34  C    0.000000   0.371218   0.000000  -0.067719   0.000000   0.000000
    35  H    0.000000  -0.035315   0.000000   0.001864   0.000000   0.000000
    36  H    0.000000  -0.027712   0.000000   0.000425   0.000000   0.000000
    37  H    0.000000  -0.032745   0.000000   0.003262   0.000000   0.000000
              31         32         33         34         35         36
     1  C    0.000000   0.000000   0.000000   0.000000   0.000000   0.000000
     2  C    0.000000   0.000000   0.000000   0.000000   0.000000   0.000000
     3  C    0.000000   0.000000   0.000000   0.000000   0.000000   0.000000
     4  C    0.000000   0.000000   0.000000   0.000000   0.000000   0.000000
     5  C    0.000000   0.000000   0.000000   0.000000   0.000000   0.000000
     6  C    0.000000   0.000000   0.000000   0.000000   0.000000   0.000000
     7  H    0.000000   0.000000   0.000000   0.000000   0.000000   0.000000
     8  H    0.000000   0.000000   0.000000   0.000000   0.000000   0.000000
     9  H    0.000000   0.000000   0.000000   0.000000   0.000000   0.000000
    10  H    0.000000   0.000000   0.000000   0.000000   0.000000   0.000000
    11  N    0.000000   0.000000   0.000000   0.000000   0.000000   0.000000
    12  H    0.000000   0.000000   0.000000   0.000000   0.000000   0.000000
    13  H    0.000000   0.000000   0.000000   0.000000   0.000000   0.000000
    14  C    0.000000   0.000000  -0.000001   0.000000   0.000000   0.000000
    15  C    0.000000   0.000000   0.000000  -0.000290   0.000030  -0.000001
    16  H    0.000000   0.000000   0.000000  -0.000014   0.000001   0.000000
    17  H    0.000000   0.000000   0.000000   0.000095  -0.000024   0.000001
    18  C   -0.000001   0.000003  -0.000002   0.004670  -0.000092  -0.000215
    19  H    0.000001   0.000000   0.000021   0.000355  -0.000009  -0.000016
    20  C   -0.000026  -0.000018  -0.000123  -0.000027  -0.000016   0.000005
    21  N    0.000000   0.000000   0.000000  -0.117784   0.004003   0.000891
    22  H    0.000000   0.000000   0.000000  -0.000623   0.000822   0.000204
    23  O    0.002623   0.003184   0.002203   0.000000   0.000000   0.000000
    24  O    0.000011   0.000006   0.000001  -0.000009  -0.000001   0.000000
    25  O    0.000000   0.000000   0.000029   0.000000   0.000000   0.000000
    26  C    0.000000   0.000000   0.000000   0.371218  -0.035315  -0.027712
    27  C   -0.029713  -0.036532  -0.029032   0.000000   0.000000   0.000000
    28  O    0.000000   0.000000   0.000000  -0.067719   0.001864   0.000425
    29  O    0.001035   0.002497   0.000776   0.000000   0.000000   0.000000
    30  C    0.376038   0.384586   0.377493   0.000000   0.000000   0.000000
    31  H    0.483123  -0.018771  -0.021766   0.000000   0.000000   0.000000
    32  H   -0.018771   0.468369  -0.018426   0.000000   0.000000   0.000000
    33  H   -0.021766  -0.018426   0.473377   0.000000   0.000000   0.000000
    34  C    0.000000   0.000000   0.000000   5.254436   0.375868   0.376418
    35  H    0.000000   0.000000   0.000000   0.375868   0.516378  -0.024288
    36  H    0.000000   0.000000   0.000000   0.376418  -0.024288   0.487459
    37  H    0.000000   0.000000   0.000000   0.385358  -0.020542  -0.017199
              37
     1  C    0.000000
     2  C    0.000000
     3  C    0.000000
     4  C    0.000000
     5  C    0.000000
     6  C    0.000000
     7  H    0.000000
     8  H    0.000000
     9  H    0.000000
    10  H    0.000000
    11  N    0.000000
    12  H    0.000000
    13  H    0.000000
    14  C    0.000000
    15  C    0.000008
    16  H    0.000000
    17  H   -0.000001
    18  C   -0.000081
    19  H   -0.000006
    20  C    0.000000
    21  N    0.004224
    22  H   -0.000030
    23  O    0.000000
    24  O    0.000000
    25  O    0.000000
    26  C   -0.032745
    27  C    0.000000
    28  O    0.003262
    29  O    0.000000
    30  C    0.000000
    31  H    0.000000
    32  H    0.000000
    33  H    0.000000
    34  C    0.385358
    35  H   -0.020542
    36  H   -0.017199
    37  H    0.456894
 Mulliken charges:
               1
     1  C   -0.271836
     2  C    0.406527
     3  C   -0.178987
     4  C   -0.173151
     5  C   -0.255310
     6  C   -0.153421
     7  H    0.199911
     8  H    0.216465
     9  H    0.203051
    10  H    0.212715
    11  N   -0.966702
    12  H    0.383617
    13  H    0.453867
    14  C    0.595097
    15  C   -0.431160
    16  H    0.219798
    17  H    0.229878
    18  C    0.000313
    19  H    0.269984
    20  C    0.853452
    21  N   -0.829855
    22  H    0.403989
    23  O   -0.680122
    24  O   -0.544106
    25  O   -0.657565
    26  C    0.753015
    27  C    0.784660
    28  O   -0.627641
    29  O   -0.509097
    30  C   -0.569638
    31  H    0.207448
    32  H    0.215102
    33  H    0.215450
    34  C   -0.581954
    35  H    0.181322
    36  H    0.204026
    37  H    0.220858
 Sum of Mulliken charges =   0.00000
 Mulliken charges with hydrogens summed into heavy atoms:
               1
     1  C   -0.071925
     2  C    0.406527
     3  C   -0.178987
     4  C    0.043313
     5  C   -0.052259
     6  C    0.059294
    11  N   -0.129218
    14  C    0.595097
    15  C    0.018516
    18  C    0.270297
    20  C    0.853452
    21  N   -0.425866
    23  O   -0.680122
    24  O   -0.544106
    25  O   -0.657565
    26  C    0.753015
    27  C    0.784660
    28  O   -0.627641
    29  O   -0.509097
    30  C    0.068362
    34  C    0.024253
 DipInt: DoE/N= T F RetVal/Mat= T F Init=T NMatP=  1 IDeriv=0 Min/MaxMlt=  0  4
 Entering OneElI...
 OneElI was handed    33244541 working-precision words.
 Multipole integrals L=0 to 4 MinM= 0 MaxM= 0.
 Requested accuracy = 0.1000D-12
 PrtBox:  NBox=     1 Levels=  1 BoxLen=   35.86 SMaxX=       20.68
          Shift=            8.799107            8.714187            3.720493
 Box      1 Number                   0 centers from      1 to    116:
 ShPair: Thresh= 1.00D-13 NBox=     1 BxSize= 3.59D+01 RnKept= 2.14D+01
         NSMCal=                 6786 NSMKep=                4953
 PrsmSu:  NPrtUS=   1 ThrOK=F IAlg=1 NPAlg=1 LenDen=           0.
 Prism:   IPart=     0 DynPar=F LinDyn=F Incr=          49.
 PRISM was handed    32803040 working-precision words and  4953 shell-pairs
 IPart=  0 NShTot=        4953 NBatch=          60 AvBLen=        82.6
 PrSmSu:  NxtVal=             50.
 Electronic moments (au):
       -154.00000000          0.18164805         -0.56751589         -0.16411192
      -4621.47803105      -2480.52518851       -431.24726979          2.60370955
         -1.04050437        -17.72913915     -12578.34968289       -331.54481335
       -113.39002616       7867.48729582       2534.51186590        532.56106358
        896.56324285        -87.92537230        889.77711362        981.36615495
    -262599.00482272     -90635.70835386      -4095.96931517       2152.21188817
      -4353.04933529      -4385.72589167       -901.97609496         50.95751835
      -1132.45945370     -77691.77162870      -9846.31792370      -8092.60783289
       5821.03868596      -5256.96128243        154.86296171
 Electronic spatial extent (au):  <R**2>=           7533.2505
 DipInt: DoE/N= F T RetVal/Mat= T F Init=T NMatP=  1 IDeriv=0 Min/MaxMlt=  0  4
 Nuclear    moments (au):
        154.00000000          0.00000000          0.00000000          0.00000000
       4553.87665282       2395.60837064        330.89873218          0.00000000
          0.00000000          0.00000000      12569.67968790        350.00790249
        110.80922048      -7892.79828762      -2502.79202657       -533.78423009
       -904.14129387        107.08659356       -899.39838606       -941.25544837
     248420.95259406      82490.17984219       2612.74417696      -1948.32523144
       4244.09146004       4563.01099664        363.43924469        -87.28284593
       1021.09340526      74338.19716043       6608.19908145       6305.55282213
      -6212.32644254       5228.74477783       -174.61740707
 Total      moments (au):
          0.00000000          0.18164805         -0.56751589         -0.16411192
        -67.60137823        -84.91681787       -100.34853761          2.60370955
         -1.04050437        -17.72913915         -8.66999499         18.46308914
         -2.58080568        -25.31099180         31.71983933         -1.22316651
         -7.57805102         19.16122126         -9.62127244         40.11070658
     -14178.05222865      -8145.52851167      -1483.22513821        203.88665673
       -108.95787524        177.28510497       -538.53685027        -36.32532758
       -111.36604844      -3353.57446827      -3238.11884225      -1787.05501076
       -391.28775659        -28.21650460        -19.75444536
 Traceless Quadrup. (au):
         16.68753301         -0.62790663        -16.05962637          2.60370955
         -1.04050437        -17.72913915
 Charge=              0.0000 electrons
 Dipole moment (field-independent basis, Debye):
    X=              0.4617    Y=             -1.4425    Z=             -0.4171  Tot=              1.5710
 Quadrupole moment (field-independent basis, Debye-Ang):
   XX=            -90.9262   YY=           -114.2160   ZZ=           -134.9722
   XY=              3.5021   XZ=             -1.3995   YZ=            -23.8463
 Traceless Quadrupole moment (field-independent basis, Debye-Ang):
   XX=             22.4453   YY=             -0.8446   ZZ=            -21.6007
   XY=              3.5021   XZ=             -1.3995   YZ=            -23.8463
 Octapole moment (field-independent basis, Debye-Ang**2):
  XXX=             -6.1710  YYY=             13.1413  ZZZ=             -1.8369  XYY=            -18.0154
  XXY=             22.5770  XXZ=             -0.8706  XZZ=             -5.3938  YZZ=             13.6382
  YYZ=             -6.8481  XYZ=             28.5493
 Hexadecapole moment (field-independent basis, Debye-Ang**3):
 XXXX=          -5340.1340 YYYY=          -3067.9964 ZZZZ=           -558.6537 XXXY=             76.7935
 XXXZ=            -41.0388 YYYX=             66.7741 YYYZ=           -202.8388 ZZZX=            -13.6819
 ZZZY=            -41.9458 XXYY=          -1263.1169 XXZZ=          -1219.6307 YYZZ=           -673.0906
 XXYZ=           -147.3777 YYXZ=            -10.6277 ZZXY=             -7.4405
 N-N= 1.666076641727D+03 E-N=-5.730469805659D+03  KE= 1.020628334861D+03
 Entering OneElI...
 OneElI was handed    33303647 working-precision words.
 Calculate electrostatic properties
    NBasis =   347  MinDer = 0  MaxDer = 0
    NGrid  =    37  NMatD  =   1
 Requested accuracy = 0.1000D-12
 PrtBox:  NBox=     1 Levels=  1 BoxLen=   29.89 SMaxX=       20.68
          Shift=            8.799107            8.714187            3.720493
 Box      1 Number                   0 centers from      1 to    116:
 ShPair: Thresh= 1.00D-13 NBox=     1 BxSize= 2.99D+01 RnKept= 1.80D+01
         NSMCal=                 6786 NSMKep=                4284
 PrsmSu:  NPrtUS=   1 ThrOK=F IAlg=1 NPAlg=1 LenDen=           0.
 Prism:   IPart=     0 DynPar=F LinDyn=F Incr=         512.
 PRISM was handed    32908029 working-precision words and  4284 shell-pairs
 IPart=  0 NShTot=      158508 NBatch=        4284 AvBLen=        37.0
 PrSmSu:  NxtVal=            513.
 --------------------------------------------------------
       Center         ----      EFG at Nuclei      ----
                      3XX-RR        3YY-RR        3ZZ-RR
 --------------------------------------------------------
     1   Atom        0.036401      0.092572     -0.128973
     2   Atom        0.358937      0.070666     -0.429603
     3   Atom       -0.017611      0.050016     -0.032405
     4   Atom        0.254721      0.125870     -0.380591
     5   Atom        0.115878      0.052889     -0.168767
     6   Atom        0.195511      0.200542     -0.396054
     7   Atom       -0.062322     -0.097607      0.159929
     8   Atom       -0.055402     -0.095256      0.150657
     9   Atom        0.103618     -0.245194      0.141576
    10   Atom       -0.312655      0.143183      0.169471
    11   Atom       -0.339754     -0.510594      0.850348
    12   Atom       -0.129230     -0.114968      0.244198
[...]
 9319 Fit       0.010507
 9320 Fit       0.009933
 9321 Fit       0.009271
 9322 Fit       0.009669
 9323 Fit       0.010086
 9324 Fit       0.010462
 9325 Fit       0.010754
 9326 Fit       0.010932
 9327 Fit       0.010971
 9328 Fit       0.010839
 9329 Fit       0.010485
 9330 Fit       0.009814
 9331 Fit       0.008649
 9332 Fit       0.009555
 9333 Fit       0.009823
 9334 Fit       0.010156
 9335 Fit       0.010479
 9336 Fit       0.010741
 9337 Fit       0.010904
 9338 Fit       0.010938
 9339 Fit       0.010811
 9340 Fit       0.010478
 9341 Fit       0.009866
 9342 Fit       0.008845
 9343 Fit       0.007177
 9344 Fit       0.009914
 9345 Fit       0.010139
 9346 Fit       0.010399
 9347 Fit       0.010625
 9348 Fit       0.010766
 9349 Fit       0.010781
 9350 Fit       0.010630
 9351 Fit       0.010267
 9352 Fit       0.009623
 9353 Fit       0.008585
 9354 Fit       0.006960
 9355 Fit       0.010073
 9356 Fit       0.010193
 9357 Fit       0.010366
 9358 Fit       0.010512
 9359 Fit       0.010566
 9360 Fit       0.010476
 9361 Fit       0.010194
 9362 Fit       0.009658
 9363 Fit       0.008788
 9364 Fit       0.007458
 9365 Fit       0.005477
 9366 Fit       0.010206
 9367 Fit       0.010273
 9368 Fit       0.010319
 9369 Fit       0.010274
 9370 Fit       0.010074
 9371 Fit       0.009663
 9372 Fit       0.008974
 9373 Fit       0.007929
 9374 Fit       0.006425
 9375 Fit       0.004344
 9376 Fit       0.010169
 9377 Fit       0.010102
 9378 Fit       0.009940
 9379 Fit       0.009600
 9380 Fit       0.009011
 9381 Fit       0.008102
 9382 Fit       0.006811
 9383 Fit       0.009937
 9384 Fit       0.009644
 9385 Fit       0.009169
 9386 Fit       0.008438
 9387 Fit       0.007420
 9388 Fit      -0.008233
 9389 Fit      -0.011940
 9390 Fit      -0.007365
 9391 Fit      -0.004350
 9392 Fit      -0.002304
 9393 Fit      -0.008998
 9394 Fit      -0.005253
 9395 Fit      -0.002634
 9396 Fit      -0.000765
 9397 Fit       0.000638
 9398 Fit      -0.009370
 9399 Fit      -0.005405
 9400 Fit      -0.002551
 9401 Fit      -0.000472
 9402 Fit       0.001062
 9403 Fit       0.002236
 9404 Fit       0.003225
 9405 Fit      -0.009131
 9406 Fit      -0.005295
 9407 Fit      -0.002431
 9408 Fit      -0.000273
 9409 Fit       0.001359
 9410 Fit       0.002600
 9411 Fit       0.003566
 9412 Fit       0.004372
 9413 Fit       0.005149
 9414 Fit      -0.011347
 9415 Fit      -0.007015
 9416 Fit      -0.003708
 9417 Fit      -0.001156
 9418 Fit       0.000820
 9419 Fit       0.002345
 9420 Fit       0.003520
 9421 Fit       0.004430
 9422 Fit       0.005162
 9423 Fit       0.005814
 9424 Fit       0.006509
 9425 Fit      -0.008151
 9426 Fit      -0.004820
 9427 Fit      -0.002129
 9428 Fit       0.000041
 9429 Fit       0.001782
 9430 Fit       0.003167
 9431 Fit       0.004258
 9432 Fit       0.005113
 9433 Fit       0.005793
 9434 Fit       0.006366
 9435 Fit       0.006918
 9436 Fit       0.007564
 9437 Fit      -0.007473
 9438 Fit      -0.004752
 9439 Fit      -0.002345
 9440 Fit      -0.000272
 9441 Fit       0.001480
 9442 Fit       0.002936
 9443 Fit       0.004127
 9444 Fit       0.005085
 9445 Fit       0.005848
 9446 Fit       0.006459
 9447 Fit       0.006971
 9448 Fit       0.007451
 9449 Fit       0.007993
 9450 Fit      -0.003218
 9451 Fit      -0.001452
 9452 Fit       0.000264
 9453 Fit       0.001831
 9454 Fit       0.003205
 9455 Fit       0.004373
 9456 Fit       0.005341
 9457 Fit       0.006126
 9458 Fit       0.006757
 9459 Fit       0.007273
 9460 Fit       0.007731
 9461 Fit       0.008204
 9462 Fit       0.000076
 9463 Fit       0.001238
 9464 Fit       0.002479
 9465 Fit       0.003671
 9466 Fit       0.004745
 9467 Fit       0.005670
 9468 Fit       0.006439
 9469 Fit       0.007068
 9470 Fit       0.007585
 9471 Fit       0.008042
 9472 Fit       0.008507
 9473 Fit       0.003275
 9474 Fit       0.004169
 9475 Fit       0.005072
 9476 Fit       0.005907
 9477 Fit       0.006638
 9478 Fit       0.007255
 9479 Fit       0.007776
 9480 Fit       0.008240
 9481 Fit       0.008708
 9482 Fit       0.005046
 9483 Fit       0.005743
 9484 Fit       0.006458
 9485 Fit       0.007119
 9486 Fit       0.007701
 9487 Fit       0.008219
 9488 Fit       0.008723
 9489 Fit       0.006484
 9490 Fit       0.007027
 9491 Fit       0.007601
 9492 Fit       0.008156
 9493 Fit      -0.000854
 9494 Fit       0.001258
 9495 Fit       0.002719
 9496 Fit       0.003741
 9497 Fit      -0.007985
 9498 Fit      -0.006226
 9499 Fit      -0.003547
 9500 Fit       0.000691
 9501 Fit       0.002375
 9502 Fit       0.003661
 9503 Fit       0.004624
 9504 Fit       0.005412
 9505 Fit       0.006144
 9506 Fit       0.006878
 9507 Fit       0.006326
 9508 Fit       0.004535
 9509 Fit       0.002541
 9510 Fit       0.000555
 9511 Fit      -0.001149
 9512 Fit      -0.002389
 9513 Fit      -0.003237
 9514 Fit      -0.003890
 9515 Fit      -0.004294
 9516 Fit      -0.004089
 9517 Fit      -0.003013
 9518 Fit      -0.001250
 9519 Fit       0.002151
 9520 Fit       0.003532
 9521 Fit       0.004658
 9522 Fit       0.005545
 9523 Fit       0.006285
 9524 Fit       0.006953
 9525 Fit       0.007576
 9526 Fit       0.008141
 9527 Fit       0.008614
 9528 Fit       0.008735
 9529 Fit       0.007989
 9530 Fit       0.006903
 9531 Fit       0.005504
 9532 Fit       0.003892
 9533 Fit       0.002250
 9534 Fit       0.000813
 9535 Fit      -0.000247
 9536 Fit      -0.000926
 9537 Fit      -0.001277
 9538 Fit      -0.001206
 9539 Fit      -0.000542
 9540 Fit       0.000679
 9541 Fit       0.003446
 9542 Fit       0.004571
 9543 Fit       0.005541
 9544 Fit       0.006337
 9545 Fit       0.007005
 9546 Fit       0.007584
 9547 Fit       0.008081
 9548 Fit       0.008479
 9549 Fit       0.008757
 9550 Fit       0.008899
 9551 Fit       0.008878
 9552 Fit       0.008655
 9553 Fit       0.008179
 9554 Fit       0.007408
 9555 Fit       0.006343
 9556 Fit       0.005057
 9557 Fit       0.003706
 9558 Fit       0.002503
 9559 Fit       0.001626
 9560 Fit       0.001143
 9561 Fit       0.001074
 9562 Fit       0.001473
 9563 Fit       0.002327
 9564 Fit       0.004549
 9565 Fit       0.005504
 9566 Fit       0.006360
 9567 Fit       0.007069
 9568 Fit       0.007645
 9569 Fit       0.008091
 9570 Fit       0.008388
 9571 Fit       0.008507
 9572 Fit       0.008407
 9573 Fit       0.008042
 9574 Fit       0.007375
 9575 Fit       0.006421
 9576 Fit       0.005294
 9577 Fit       0.004204
 9578 Fit       0.003390
 9579 Fit       0.003003
 9580 Fit       0.003102
 9581 Fit       0.003667
 9582 Fit       0.005461
 9583 Fit       0.006335
 9584 Fit       0.007115
 9585 Fit       0.007693
 9586 Fit       0.008020
 9587 Fit       0.008035
 9588 Fit       0.007669
 9589 Fit       0.006912
 9590 Fit       0.005910
 9591 Fit       0.005009
 9592 Fit       0.004573
 9593 Fit       0.004764
 9594 Fit       0.006200
 9595 Fit       0.007025
 9596 Fit       0.007507
 9597 Fit       0.007269
 9598 Fit       0.006417
 9599 Fit       0.005827
 9600 Fit       0.006792
 9601 Fit       0.018842
 9602 Fit       0.017105
 9603 Fit       0.015978
 9604 Fit       0.015159
 9605 Fit       0.014494
 9606 Fit       0.013925
 9607 Fit       0.013454
 9608 Fit       0.013097
 9609 Fit       0.012866
 9610 Fit       0.018277
 9611 Fit       0.016823
 9612 Fit       0.015910
 9613 Fit       0.014051
 9614 Fit       0.013448
 9615 Fit       0.012884
 9616 Fit       0.012408
 9617 Fit       0.012053
 9618 Fit       0.011827
 9619 Fit       0.011720
 9620 Fit       0.011713
 9621 Fit       0.011781
 9622 Fit       0.011906
 9623 Fit       0.012073
 9624 Fit       0.012291
 9625 Fit       0.012597
 9626 Fit       0.017754
 9627 Fit       0.019656
 9628 Fit       0.016798
 9629 Fit       0.012283
 9630 Fit       0.011720
 9631 Fit       0.011305
 9632 Fit       0.011043
 9633 Fit       0.010919
 9634 Fit       0.010906
 9635 Fit       0.010972
 9636 Fit       0.011080
 9637 Fit       0.011199
 9638 Fit       0.011314
 9639 Fit       0.011446
 9640 Fit       0.011651
 9641 Fit       0.012016
 9642 Fit       0.012640
 9643 Fit       0.013610
 9644 Fit       0.014971
 9645 Fit       0.016692
 9646 Fit       0.015390
 9647 Fit       0.011768
 9648 Fit       0.011125
 9649 Fit       0.010668
 9650 Fit       0.010394
 9651 Fit       0.010282
 9652 Fit       0.010301
 9653 Fit       0.010408
 9654 Fit       0.010551
 9655 Fit       0.010723
 9656 Fit       0.010761
 9657 Fit       0.010973
 9658 Fit       0.011472
 9659 Fit       0.012358
 9660 Fit       0.013686
 9661 Fit       0.010809
 9662 Fit       0.010235
 9663 Fit       0.009890
 9664 Fit       0.009753
 9665 Fit       0.009790
 9666 Fit       0.009952
 9667 Fit       0.009703
 9668 Fit       0.009950
 9669 Fit       0.010619
 9670 Fit       0.011795
 9671 Fit       0.010362
 9672 Fit       0.009703
 9673 Fit       0.009333
 9674 Fit       0.009228
 9675 Fit       0.009348
 9676 Fit       0.007890
 9677 Fit       0.008083
 9678 Fit       0.009077
 9679 Fit       0.008707
 9680 Fit       0.008653
 9681 Fit       0.004670
 9682 Fit       0.008288
 9683 Fit       0.007943
 9684 Fit       0.007172
 9685 Fit       0.006939
 9686 Fit       0.005932
 9687 Fit       0.005658
 9688 Fit       0.004297
 9689 Fit       0.003967
 9690 Fit       0.002385
 9691 Fit       0.001884
 9692 Fit      -0.000240
 9693 Fit      -0.000746
 9694 Fit      -0.001203
 9695 Fit      -0.006017
 9696 Fit      -0.004582
 9697 Fit      -0.004152
 9698 Fit      -0.004333
 9699 Fit      -0.004860
 9700 Fit      -0.009926
 9701 Fit      -0.009414
 9702 Fit      -0.009961
 9703 Fit      -0.011545
 9704 Fit       0.018005
 9705 Fit       0.018720
 9706 Fit       0.019626
 9707 Fit       0.018714
 9708 Fit       0.017303
 9709 Fit       0.016789
 9710 Fit       0.017360
 9711 Fit       0.019434
 9712 Fit       0.021074
 9713 Fit       0.021986
 9714 Fit       0.021310
 9715 Fit       0.019534
 9716 Fit       0.017807
 9717 Fit       0.016623
 9718 Fit       0.015981
 9719 Fit       0.015800
 9720 Fit       0.016047
 9721 Fit       0.016736
 9722 Fit       0.017886
 9723 Fit       0.020122
 9724 Fit       0.022191
 9725 Fit       0.023047
 9726 Fit       0.020499
 9727 Fit       0.018418
 9728 Fit       0.016951
 9729 Fit       0.015979
 9730 Fit       0.015370
 9731 Fit       0.015038
 9732 Fit       0.014943
 9733 Fit       0.015074
 9734 Fit       0.015447
 9735 Fit       0.016100
 9736 Fit       0.017076
 9737 Fit       0.018411
 9738 Fit       0.020741
 9739 Fit       0.023218
 9740 Fit       0.020629
 9741 Fit       0.018351
 9742 Fit       0.016820
 9743 Fit       0.015785
 9744 Fit       0.015078
 9745 Fit       0.014604
 9746 Fit       0.014314
 9747 Fit       0.014183
 9748 Fit       0.014203
 9749 Fit       0.014381
 9750 Fit       0.014738
 9751 Fit       0.015314
 9752 Fit       0.016155
 9753 Fit       0.017309
 9754 Fit       0.018817
 9755 Fit       0.021218
 9756 Fit       0.019570
 9757 Fit       0.017552
 9758 Fit       0.016218
 9759 Fit       0.015288
 9760 Fit       0.014613
 9761 Fit       0.014120
 9762 Fit       0.013778
 9763 Fit       0.013567
 9764 Fit       0.013477
 9765 Fit       0.013503
 9766 Fit       0.013651
 9767 Fit       0.013943
 9768 Fit       0.014414
 9769 Fit       0.015116
 9770 Fit       0.016103
 9771 Fit       0.017419
 9772 Fit       0.019100
 9773 Fit       0.021470
 9774 Fit       0.014983
 9775 Fit       0.014318
 9776 Fit       0.013790
 9777 Fit       0.013386
 9778 Fit       0.013102
 9779 Fit       0.012928
 9780 Fit       0.012852
 9781 Fit       0.012869
 9782 Fit       0.012979
 9783 Fit       0.013199
 9784 Fit       0.013561
 9785 Fit       0.014117
 9786 Fit       0.014926
 9787 Fit       0.016041
 9788 Fit       0.017496
 9789 Fit       0.019297
 9790 Fit       0.012372
 9791 Fit       0.012483
 9792 Fit       0.012690
 9793 Fit       0.013041
 9794 Fit       0.013608
 9795 Fit       0.014471
 9796 Fit       0.015696
 9797 Fit       0.017306
 9798 Fit       0.019258
 9799 Fit       0.015265
 9800 Fit       0.014525
 9801 Fit       0.014044
 9802 Fit       0.013728
 9803 Fit       0.015713
 9804 Fit       0.014731
 9805 Fit       0.014120
 9806 Fit       0.013687
 9807 Fit       0.013338
 9808 Fit       0.013040
 9809 Fit       0.012802
 9810 Fit       0.014712
 9811 Fit       0.014115
 9812 Fit       0.013708
 9813 Fit       0.013393
 9814 Fit       0.013111
 9815 Fit       0.012830
 9816 Fit       0.012544
 9817 Fit       0.012266
 9818 Fit       0.012028
 9819 Fit       0.013586
 9820 Fit       0.013423
 9821 Fit       0.013242
 9822 Fit       0.013061
 9823 Fit       0.012870
 9824 Fit       0.012651
 9825 Fit       0.012396
 9826 Fit       0.012104
 9827 Fit       0.011790
 9828 Fit       0.011485
 9829 Fit       0.011239
 9830 Fit       0.012327
 9831 Fit       0.012499
 9832 Fit       0.012521
 9833 Fit       0.012462
 9834 Fit       0.012343
 9835 Fit       0.012165
 9836 Fit       0.011928
 9837 Fit       0.011635
 9838 Fit       0.011303
 9839 Fit       0.010956
 9840 Fit       0.010639
 9841 Fit       0.011008
 9842 Fit       0.011496
 9843 Fit       0.011717
 9844 Fit       0.011792
 9845 Fit       0.011767
 9846 Fit       0.011660
 9847 Fit       0.011475
 9848 Fit       0.011217
 9849 Fit       0.010895
 9850 Fit       0.010529
 9851 Fit       0.010151
 9852 Fit       0.009810
 9853 Fit       0.010009
 9854 Fit       0.010529
 9855 Fit       0.010810
 9856 Fit       0.010932
 9857 Fit       0.010932
 9858 Fit       0.010825
 9859 Fit       0.010618
 9860 Fit       0.010322
 9861 Fit       0.009952
 9862 Fit       0.009537
 9863 Fit       0.009119
 9864 Fit       0.008769
 9865 Fit       0.008256
 9866 Fit       0.009018
 9867 Fit       0.009502
 9868 Fit       0.009775
 9869 Fit       0.009878
 9870 Fit       0.009834
 9871 Fit       0.009658
 9872 Fit       0.009363
 9873 Fit       0.008968
 9874 Fit       0.008509
 9875 Fit       0.008036
 9876 Fit       0.007632
 9877 Fit       0.006978
 9878 Fit       0.007737
 9879 Fit       0.008223
 9880 Fit       0.008477
 9881 Fit       0.008533
 9882 Fit       0.008411
 9883 Fit       0.008134
 9884 Fit       0.007726
 9885 Fit       0.007224
 9886 Fit       0.006688
 9887 Fit       0.005022
 9888 Fit       0.005993
 9889 Fit       0.006574
 9890 Fit       0.006830
 9891 Fit       0.006811
 9892 Fit       0.006555
 9893 Fit       0.006101
 9894 Fit       0.005499
 9895 Fit       0.004821
 9896 Fit       0.002771
 9897 Fit       0.003960
 9898 Fit       0.004581
 9899 Fit       0.004751
 9900 Fit       0.004545
 9901 Fit       0.004026
 9902 Fit       0.003253
 9903 Fit      -0.001150
 9904 Fit       0.000893
 9905 Fit       0.001881
 9906 Fit       0.002089
 9907 Fit       0.001668
 9908 Fit       0.000701
 9909 Fit      -0.004965
 9910 Fit      -0.002149
 9911 Fit      -0.001327
 9912 Fit      -0.002006
 9913 Fit       0.010803
 9914 Fit       0.010180
 9915 Fit       0.010038
 9916 Fit       0.009930
 9917 Fit       0.009839
 9918 Fit       0.009776
 9919 Fit       0.009788
 9920 Fit       0.009960
 9921 Fit       0.009462
 9922 Fit       0.009333
 9923 Fit       0.009208
 9924 Fit       0.009057
 9925 Fit       0.008874
 9926 Fit       0.008673
 9927 Fit       0.008498
 9928 Fit       0.008428
 9929 Fit       0.008592
 9930 Fit       0.008891
 9931 Fit       0.008733
 9932 Fit       0.008620
 9933 Fit       0.008493
 9934 Fit       0.008316
 9935 Fit       0.008066
 9936 Fit       0.007741
 9937 Fit       0.007349
 9938 Fit       0.006923
 9939 Fit       0.006520
 9940 Fit       0.006235
 9941 Fit       0.008117
 9942 Fit       0.007950
 9943 Fit       0.007845
 9944 Fit       0.007731
 9945 Fit       0.007559
 9946 Fit       0.007295
 9947 Fit       0.006918
 9948 Fit       0.006414
 9949 Fit       0.005782
 9950 Fit       0.005028
 9951 Fit       0.004172
 9952 Fit       0.003248
 9953 Fit       0.002315
 9954 Fit       0.007122
 9955 Fit       0.006963
 9956 Fit       0.006867
 9957 Fit       0.006748
 9958 Fit       0.006549
 9959 Fit       0.006224
 9960 Fit       0.005739
 9961 Fit       0.005065
 9962 Fit       0.004177
 9963 Fit       0.003047
 9964 Fit       0.001638
 9965 Fit      -0.000105
 9966 Fit      -0.002279
 9967 Fit       0.005962
 9968 Fit       0.005769
 9969 Fit       0.005678
 9970 Fit       0.005576
 9971 Fit       0.005385
 9972 Fit       0.005040
 9973 Fit       0.004491
 9974 Fit       0.003688
 9975 Fit       0.002576
 9976 Fit       0.001086
 9977 Fit      -0.000884
 9978 Fit      -0.003506
 9979 Fit      -0.007082
 9980 Fit       0.004189
 9981 Fit       0.004135
 9982 Fit       0.004075
 9983 Fit       0.003916
 9984 Fit       0.003580
 9985 Fit       0.002999
 9986 Fit       0.002103
 9987 Fit       0.000811
 9988 Fit      -0.000988
 9989 Fit      -0.003463
 9990 Fit      -0.006895
 9991 Fit       0.001949
 9992 Fit       0.002059
 9993 Fit       0.002090
 9994 Fit       0.001948
 9995 Fit       0.001536
 9996 Fit       0.000757
 9997 Fit      -0.000502
 9998 Fit      -0.002391
 9999 Fit      -0.005137
 **** Fit      -0.009122
 **** Fit      -0.000867
 **** Fit      -0.000557
 **** Fit      -0.000587
 **** Fit      -0.001045
 **** Fit      -0.002058
 **** Fit      -0.003802
 **** Fit      -0.006542
 **** Fit      -0.010715
 **** Fit      -0.004694
 **** Fit      -0.004017
 **** Fit      -0.004142
 **** Fit      -0.005164
 **** Fit      -0.007335
 **** Fit      -0.011098
 **** Fit      -0.008974
 **** Fit      -0.008768
 **** Fit      -0.010735
 **** Fit      -0.015490
 **** Fit      -0.015163
 -----------------------------------------------------------------
 Leave Link  602 at Tue Oct 18 10:29:30 2016, MaxMem=    33554432 cpu:         3.4

 Test job not archived.
 1\1\GINC-C32B-S28\FOpt\RHF\6-31G(d)\C14H16N2O5\ROOT\18-Oct-2016\0\\# o
 pt hf/6-31g* geom=connectivity iop(6/33=2,6/42=6) pop=mk scf=tight tes
 t\\Title Card Required\\0,1\C,0.0399364326,-0.0265768736,-0.0303631444
 \C,0.013199892,-0.1024991717,1.3752581122\C,1.2414168107,-0.0418190111
 ,2.0721072956\C,2.4282206393,0.0823768494,1.3308806584\C,2.4399392321,
 0.1520034494,-0.0377002933\C,1.2199247775,0.0971007041,-0.7142053264\H
 ,-0.8918247417,-0.0758178531,-0.5659378202\H,3.3657900527,0.1299757946
 ,1.8505947383\H,3.36431178,0.2476943728,-0.5756701718\H,1.2003216649,0
 .1510559892,-1.7884740587\N,-1.1882044574,-0.265645572,1.99268553\H,-2
 .0051949846,-0.0477222784,1.4705084548\H,-1.2331792966,-0.135487673,2.
 976980286\C,1.2885249413,-0.0786518628,3.5484449695\C,2.63044017,-0.00
 46573951,4.2601148498\H,3.0947966019,0.9540527882,4.05256365\H,3.29534
 43764,-0.7781938953,3.8948243384\C,2.4887448827,-0.1871938273,5.775045
 5063\H,2.0665801692,-1.1517428633,5.9954480613\C,1.6253115183,0.905532
 0159,6.3853623295\N,3.778733375,-0.0975882816,6.4339881967\H,4.1363834
 144,0.8130912802,6.6173086327\O,0.648866272,0.4082135376,7.171487595\O
 ,1.8719883968,2.0534114123,6.2698764845\O,0.2965678125,-0.1495525742,4
 .2331099718\C,4.5855135024,-1.1787198458,6.5867635411\C,-0.5108236637,
 1.0771820149,7.4440947347\O,4.2623182403,-2.2773216892,6.2286453792\O,
 -0.8929110667,2.0053378759,6.8345909783\C,-1.216136674,0.4095417093,8.
 5893231424\H,-0.586811118,0.4355896686,9.4714352864\H,-2.1474338795,0.
 9204796387,8.7819336679\H,-1.4031144072,-0.6298018008,8.3465431743\C,5
 .9010985084,-0.9101875747,7.2841638241\H,6.2858495991,0.0829629243,7.0
 824747149\H,5.7556505354,-1.0069091432,8.3553137075\H,6.621070522,-1.6
 514249688,6.9685970415\\Version=ES64L-G09RevD.01\State=1-A\HF=-1022.74
 54167\RMSD=4.895e-09\RMSF=3.692e-06\Dipole=0.4957825,0.077265,-0.13593
 1\Quadrupole=8.5310758,-23.5611956,15.0301198,7.9985522,3.4628226,-2.2
 180087\PG=C01 [X(C14H16N2O5)]\\@


 THE RED LIGHT IS ALWAYS LONGER THAN THE GREEN LIGHT.

                     -- PETER'S THEORY OF RELATIVITY
 Job cpu time:       0 days  1 hours 36 minutes  3.9 seconds.
 File lengths (MBytes):  RWF=     76 Int=      0 D2E=      0 Chk=     11 Scr=      1
 Normal termination of Gaussian 09 at Tue Oct 18 10:29:30 2016.
