 Entering Gaussian System, Link 0=g09
 Initial command:
 /apps/gaussian/g09/em64t-sse4_2/l1.exe "/ufrc/chm6580/share/aravinda1879/multi_confo/ace_parm/Gau-24149.inp" -scrdir="/ufrc/chm6580/share/aravinda1879/multi_confo/ace_parm/"
 Entering Link 1 = /apps/gaussian/g09/em64t-sse4_2/l1.exe PID=     24151.
  
 Copyright (c) 1988,1990,1992,1993,1995,1998,2003,2009,2013,
            Gaussian, Inc.  All Rights Reserved.
  
 This is part of the Gaussian(R) 09 program.  It is based on
 the Gaussian(R) 03 system (copyright 2003, Gaussian, Inc.),
 the Gaussian(R) 98 system (copyright 1998, Gaussian, Inc.),
 the Gaussian(R) 94 system (copyright 1995, Gaussian, Inc.),
 the Gaussian 92(TM) system (copyright 1992, Gaussian, Inc.),
 the Gaussian 90(TM) system (copyright 1990, Gaussian, Inc.),
 the Gaussian 88(TM) system (copyright 1988, Gaussian, Inc.),
 the Gaussian 86(TM) system (copyright 1986, Carnegie Mellon
 University), and the Gaussian 82(TM) system (copyright 1983,
 Carnegie Mellon University). Gaussian is a federally registered
 trademark of Gaussian, Inc.
  
 This software contains proprietary and confidential information,
 including trade secrets, belonging to Gaussian, Inc.
  
 This software is provided under written license and may be
 used, copied, transmitted, or stored only in accord with that
 written license.
  
 The following legend is applicable only to US Government
 contracts under FAR:
  
                    RESTRICTED RIGHTS LEGEND
  
 Use, reproduction and disclosure by the US Government is
 subject to restrictions as set forth in subparagraphs (a)
 and (c) of the Commercial Computer Software - Restricted
 Rights clause in FAR 52.227-19.
  
 Gaussian, Inc.
 340 Quinnipiac St., Bldg. 40, Wallingford CT 06492
  
  
 ---------------------------------------------------------------
 Warning -- This program may not be used in any manner that
 competes with the business of Gaussian, Inc. or will provide
 assistance to any competitor of Gaussian, Inc.  The licensee
 of this program is prohibited from giving any competitor of
 Gaussian, Inc. access to this program.  By using this program,
 the user acknowledges that Gaussian, Inc. is engaged in the
 business of creating and licensing software in the field of
 computational chemistry and represents and warrants to the
 licensee that it is not a competitor of Gaussian, Inc. and that
 it will not use this program in any manner prohibited above.
 ---------------------------------------------------------------
  

 Cite this work as:
 Gaussian 09, Revision D.01,
 M. J. Frisch, G. W. Trucks, H. B. Schlegel, G. E. Scuseria, 
 M. A. Robb, J. R. Cheeseman, G. Scalmani, V. Barone, B. Mennucci, 
 G. A. Petersson, H. Nakatsuji, M. Caricato, X. Li, H. P. Hratchian, 
 A. F. Izmaylov, J. Bloino, G. Zheng, J. L. Sonnenberg, M. Hada, 
 M. Ehara, K. Toyota, R. Fukuda, J. Hasegawa, M. Ishida, T. Nakajima, 
 Y. Honda, O. Kitao, H. Nakai, T. Vreven, J. A. Montgomery, Jr., 
 J. E. Peralta, F. Ogliaro, M. Bearpark, J. J. Heyd, E. Brothers, 
 K. N. Kudin, V. N. Staroverov, T. Keith, R. Kobayashi, J. Normand, 
 K. Raghavachari, A. Rendell, J. C. Burant, S. S. Iyengar, J. Tomasi, 
 M. Cossi, N. Rega, J. M. Millam, M. Klene, J. E. Knox, J. B. Cross, 
 V. Bakken, C. Adamo, J. Jaramillo, R. Gomperts, R. E. Stratmann, 
 O. Yazyev, A. J. Austin, R. Cammi, C. Pomelli, J. W. Ochterski, 
 R. L. Martin, K. Morokuma, V. G. Zakrzewski, G. A. Voth, 
 P. Salvador, J. J. Dannenberg, S. Dapprich, A. D. Daniels, 
 O. Farkas, J. B. Foresman, J. V. Ortiz, J. Cioslowski, 
 and D. J. Fox, Gaussian, Inc., Wallingford CT, 2013.
 
 ******************************************
 Gaussian 09:  ES64L-G09RevD.01 24-Apr-2013
                18-Oct-2016 
 ******************************************
 -------------------------------------------------------------
 # opt hf/6-31g* iop(6/33=2,6/42=6) pop=mk scf=tight test popt
 -------------------------------------------------------------
 1/38=1/1,7;
 2/12=2,17=6,18=5,40=1/2;
 3/5=1,6=6,7=1,11=9,16=1,25=1,30=1/1,2,3;
 4//1;
 5/5=2,32=2,38=5/2;
 6/7=2,8=2,9=2,10=2,15=8,20=1,28=1,33=2,42=6/1,2;
 1//7,1;
 2/12=2,17=6,18=5,40=1/2;
 3/5=1,6=6,7=1,11=9,16=1,25=1,30=1/1,2,3;
 4/5=5,16=3,69=1/1;
 5/5=2,32=2,38=5/2;
 6/7=2,8=2,9=2,10=2,15=8,20=1,28=1,33=2,42=6/1,2;
 1//7(1);
 99/9=1/99;
 3/5=1,6=6,7=1,11=9,16=1,25=1,30=1/1,2,3;
 4/5=5,16=3,69=1/1;
 5/5=2,32=2,38=5/2;
 6/7=2,8=2,9=2,10=2,15=8,20=1,28=1,33=2,42=6/1,2;
 1//7(-4);
 99/9=1/99;
 -------------
 Molecule Name
 -------------
 Symbolic Z-matrix:
 Charge =  0 Multiplicity = 1
 C
 C                    1    B1
 C                    2    B2       1    A1
 C                    3    B3       2    A2       1    D1       0
 C                    4    B4       3    A3       2    D2       0
 C                    1    B5       2    A4       3    D3       0
 H                    1    B6       6    A5       5    D4       0
 H                    4    B7       3    A6       2    D5       0
 H                    5    B8       4    A7       3    D6       0
 H                    6    B9       1    A8       2    D7       0
 N                    2    B10      1    A9       6    D8       0
 H                    11   B11      2    A10      1    D9       0
 H                    11   B12      2    A11      1    D10      0
 C                    3    B13      2    A12      1    D11      0
 C                    14   B14      3    A13      2    D12      0
 H                    15   B15      14   A14      3    D13      0
 H                    15   B16      14   A15      3    D14      0
 C                    15   B17      14   A16      3    D15      0
 H                    18   B18      15   A17      14   D16      0
 C                    18   B19      15   A18      14   D17      0
 N                    18   B20      15   A19      14   D18      0
 H                    21   B21      18   A20      15   D19      0
 O                    20   B22      18   A21      15   D20      0
 O                    14   B23      3    A22      2    D21      0
 C                    20   B24      18   A23      15   D22      0
 C                    21   B25      18   A24      15   D23      0
 O                    25   B26      20   A25      18   D24      0
 C                    25   B27      20   A26      18   D25      0
 H                    28   B28      25   A27      20   D26      0
 H                    28   B29      25   A28      20   D27      0
 H                    28   B30      25   A29      20   D28      0
 C                    26   B31      21   A30      18   D29      0
 H                    32   B32      26   A31      21   D30      0
 H                    32   B33      26   A32      21   D31      0
 H                    32   B34      26   A33      21   D32      0
 O                    26   B35      21   A34      18   D33      0
 N                    25   B36      20   A35      18   D34      0
 H                    37   B37      25   A36      20   D35      0
       Variables:
  B1                    1.41067                  
  B2                    1.41642                  
  B3                    1.407                    
  B4                    1.37142                  
  B5                    1.36951                  
  B6                    1.07104                  
  B7                    1.06881                  
  B8                    1.06892                  
  B9                    1.0711                   
  B10                   1.35962                  
  B11                   0.9871                   
  B12                   0.98822                  
  B13                   1.46813                  
  B14                   1.5149                   
  B15                   1.082                    
  B16                   1.08024                  
  B17                   1.52419                  
  B18                   1.07537                  
  B19                   1.5139                   
  B20                   1.45376                  
  B21                   0.99012                  
  B22                   1.19601                  
  B23                   1.23111                  
  B24                   2.44862                  
  B25                   1.35926                  
  B26                   1.20387                  
  B27                   1.4822                   
  B28                   1.07563                  
  B29                   1.07852                  
  B30                   1.08043                  
  B31                   1.49884                  
  B32                   1.07593                  
  B33                   1.08025                  
  B34                   1.08244                  
  B35                   1.22653                  
  B36                   1.36935                  
  B37                   1.                       
  A1                  118.29245                  
  A2                  118.3971                   
  A3                  122.55609                  
  A4                  121.4203                   
  A5                  120.17437                  
  A6                  119.30541                  
  A7                  120.68206                  
  A8                  119.36385                  
  A9                  118.59049                  
  A10                 119.87368                  
  A11                 120.34094                  
  A12                 121.08326                  
  A13                 119.56944                  
  A14                 108.53899                  
  A15                 110.73914                  
  A16                 112.52942                  
  A17                 110.82386                  
  A18                 110.63209                  
  A19                 111.09102                  
  A20                 117.72746                  
  A21                 126.23928                  
  A22                 121.93767                  
  A23                 113.06141                  
  A24                 123.55697                  
  A25                  94.11485                  
  A26                 138.39169                  
  A27                 109.65027                  
  A28                 110.25357                  
  A29                 108.40077                  
  A30                 115.82127                  
  A31                 108.99853                  
  A32                 111.91826                  
  A33                 109.15638                  
  A34                 121.78575                  
  A35                  27.32348                  
  A36                  94.65168                  
  D1                    0.85151                  
  D2                   -0.49649                  
  D3                   -0.64328                  
  D4                  179.72976                  
  D5                  179.12729                  
  D6                  179.81821                  
  D7                 -179.80788                  
  D8                  179.58255                  
  D9                   -0.14252                  
  D10                -177.91778                  
  D11                -179.78803                  
  D12                 177.74104                  
  D13                  69.48976                  
  D14                 -46.23351                  
  D15                -169.38163                  
  D16                 -46.25129                  
  D17                -166.23032                  
  D18                  72.76525                  
  D19                  39.17214                  
  D20                 -13.18085                  
  D21                  -3.36794                  
  D22                -166.92854                  
  D23                -143.73967                  
  D24                  85.59939                  
  D25                 -91.59928                  
  D26                -174.36041                  
  D27                 -52.63303                  
  D28                  65.69995                  
  D29                 178.17173                  
  D30                -161.78684                  
  D31                 -40.57216                  
  D32                  79.65673                  
  D33                  -4.20095                  
  D34                 -95.62363                  
  D35                -127.38406                  
 
 Guess transition structure using the linear synchronous transit pathway.
                          Input orientation:                          
 ---------------------------------------------------------------------
 Center     Atomic      Atomic             Coordinates (Angstroms)
 Number     Number       Type             X           Y           Z
 ---------------------------------------------------------------------
      1          6           0        0.000000    0.000000    0.000000
      2          6           0        0.000000    0.000000    1.410668
      3          6           0        1.247212    0.000000    2.082011
      4          6           0        2.422984    0.018394    1.309444
      5          6           0        2.404960    0.026195   -0.061831
      6          6           0        1.168618    0.013121   -0.713941
      7          1           0       -0.942080   -0.005588   -0.509488
      8          1           0        3.371866    0.032840    1.801144
      9          1           0        3.316890    0.043134   -0.619216
     10          1           0        1.130153    0.015819   -1.784345
     11          7           0       -1.193825   -0.004705    2.061311
     12          1           0       -2.035148   -0.005892    1.545026
     13          1           0       -1.224403    0.026162    3.048576
     14          6           0        1.318698   -0.004652    3.548393
     15          6           0        2.670195   -0.056439    4.230802
     16          1           0        3.175069    0.886282    4.066156
     17          1           0        3.298617   -0.809571    3.778254
     18          6           0        2.558492   -0.313844    5.728941
     19          1           0        1.804654    0.313877    6.169524
     20          6           0        3.874811   -0.026267    6.419220
     21          7           0        2.179351   -1.691619    5.996182
     22          1           0        2.578533   -2.397687    5.428330
     23          8           0        4.932587    0.135979    5.885153
     24          8           0        0.308599    0.052669    4.249844
     25          6           0        3.962077   -0.880545    8.712322
     26          6           0        1.356929   -2.060769    7.013497
     27          8           0        4.317955   -1.981778    8.380766
     28          6           0        3.666791   -0.404118   10.084452
     29          1           0        3.968515   -1.149441   10.798900
     30          1           0        4.177374    0.526700   10.274443
     31          1           0        2.603546   -0.229087   10.163276
     32          6           0        1.047052   -3.524419    7.104151
     33          1           0        0.169402   -3.659661    7.711651
     34          1           0        0.881871   -3.962672    6.130711
     35          1           0        1.877000   -4.034653    7.575867
     36          8           0        0.934558   -1.248727    7.829928
     37          7           0        3.746900    0.108299    7.789818
     38          1           0        4.358367    0.765196    8.230947
 ---------------------------------------------------------------------
                    Distance matrix (angstroms):
                    1          2          3          4          5
     1  C    0.000000
     2  C    1.410668   0.000000
     3  C    2.426995   1.416417   0.000000
     4  C    2.754239   2.425167   1.406996   0.000000
     5  C    2.405898   2.820066   2.436622   1.371415   0.000000
     6  C    1.369508   2.424831   2.797087   2.380661   1.397841
     7  H    1.071039   2.138819   3.392477   3.825277   3.376994
     8  H    3.822915   3.394559   2.143390   1.068810   2.098958
     9  H    3.374470   3.888965   3.403242   2.125890   1.068916
    10  H    2.112199   3.389042   3.868160   3.353051   2.142965
    11  N    2.382067   1.359623   2.441129   3.694204   4.178509
    12  H    2.555185   2.039587   3.325999   4.464418   4.722031
    13  H    3.285371   2.045138   2.654018   4.040801   4.779844
    14  C    3.785509   2.511743   1.468131   2.496572   3.770230
    15  C    5.003280   3.884106   2.577862   2.932754   4.301613
    16  H    5.234519   4.232987   2.904989   2.986357   4.286385
    17  H    5.080500   4.140258   2.782249   2.747231   4.030307
    18  C    6.282129   5.029101   3.888194   4.434039   5.802779
    19  H    6.435707   5.099216   4.137273   4.908159   6.266810
    20  C    7.498082   6.332491   5.071129   5.312213   6.645844
    21  N    6.600405   5.351456   4.364768   4.994899   6.300897
    22  H    6.470279   5.342223   4.326566   4.777747   6.003932
    23  O    7.680099   6.661074   5.297581   5.220062   6.462783
    24  O    4.261359   2.856383   2.362894   3.621844   4.794369
    25  C    9.611346   8.353895   7.218509   7.614427   8.957262
    26  C    7.434862   6.122068   5.345873   6.164058   7.450775
    27  O    9.633764   8.435309   7.282254   7.589150   8.886447
    28  C   10.738009   9.425667   8.369990   8.872786  10.233496
    29  H   11.562290  10.257154   9.203850   9.685157  11.035501
    30  H   11.103695   9.812969   8.716605   9.149179  10.499072
    31  H   10.493956   9.134499   8.197498   8.859131  10.230221
    32  C    7.999175   6.777432   6.138687   6.929887   8.111847
    33  H    8.537645   7.288635   6.800562   7.719779   8.888773
    34  H    7.352964   6.225694   5.676990   6.439606   7.521864
    35  H    8.786087   7.603370   6.845255   7.482870   8.666237
    36  O    7.983765   6.606029   5.890299   6.807182   8.128184
    37  N    8.644782   7.398955   6.232113   6.614839   7.965923
    38  H    9.345019   8.130012   6.933558   7.225692   8.551730
                    6          7          8          9         10
     6  C    0.000000
     7  H    2.120660   0.000000
     8  H    3.343702   4.893938   0.000000
     9  H    2.150569   4.260662   2.421007   0.000000
    10  H    1.071098   2.433078   4.228629   2.477921   0.000000
    11  N    3.644651   2.583096   4.573251   5.247291   4.493369
    12  H    3.920129   2.327193   5.413215   5.773271   4.593943
    13  H    4.459064   3.569389   4.762543   5.837493   5.375981
    14  C    4.265012   4.645161   2.696253   4.622123   5.336109
    15  C    5.168177   5.959989   2.530523   4.893956   6.209585
    16  H    5.257146   6.219556   2.428450   4.762744   6.258415
    17  H    5.039199   6.083965   2.150345   4.479417   6.027106
    18  C    6.599196   7.160100   4.026085   6.403257   7.654953
    19  H    6.919327   7.228819   4.649503   6.960399   7.987980
    20  C    7.629353   8.438594   4.645759   7.060855   8.650630
    21  N    6.996676   7.410114   4.689797   6.933027   8.034474
    22  H    6.747396   7.305789   4.437715   6.563200   7.742448
    23  O    7.598065   8.684652   4.373284   6.702679   8.561200
    24  O    5.037893   4.921264   3.921750   5.723430   6.089971
    25  C    9.872005  10.481321   6.996213   9.399311  10.908863
    26  C    8.003111   8.130469   5.967561   8.156357   9.042437
    27  O    9.829122  10.517125   6.945876   9.279120  10.838909
    28  C   11.091449  11.559935   8.300066  10.718721  12.144102
    29  H   11.905313  12.381518   9.094690  11.498705  12.951918
    30  H   11.404427  11.949281   8.525816  10.938285  12.448330
    31  H   10.974130  11.248525   8.401439  10.809491  12.040620
    32  C    8.582047   8.620111   6.795640   8.805112   9.567944
    33  H    9.245451   9.065031   7.669709   9.644725  10.227715
    34  H    7.920758   7.942138   6.396041   8.218109   8.862175
    35  H    9.252416   9.463274   7.219872   9.266122  10.226323
    36  O    8.639719   8.637884   6.627905   8.873131   9.699051
    37  N    8.886536   9.532995   6.000880   8.420274   9.925750
    38  H    9.526339  10.251052   6.546136   8.940438  10.549361
                   11         12         13         14         15
    11  N    0.000000
    12  H    0.987105   0.000000
    13  H    0.988221   1.708507   0.000000
    14  C    2.919621   3.906631   2.591935   0.000000
    15  C    4.431706   5.418136   4.070918   1.514895   0.000000
    16  H    4.888814   5.856487   4.596806   2.123194   1.082003
    17  H    4.876242   5.838001   4.657101   2.149607   1.080241
    18  C    5.256135   6.221053   4.648683   2.527346   1.524191
    19  H    5.096056   6.019328   4.358702   2.684761   2.155212
    20  C    6.684527   7.660665   6.112771   3.843934   2.498236
    21  N    5.450432   6.357395   4.819201   3.094876   2.455872
    22  H    5.594092   6.487433   5.099078   3.293625   2.631334
    23  O    7.223190   8.210125   6.779878   4.305858   2.809327
    24  O    2.655230   3.579472   1.947779   1.231105   2.364192
    25  C    8.460872   9.386258   7.733027   5.866924   4.736257
    26  C    5.937836   6.755211   5.170992   4.029395   3.672247
    27  O    8.615337   9.539044   7.948698   6.021328   4.862534
    28  C    9.389138  10.275820   8.579771   6.956521   5.948050
    29  H   10.213013  11.089898   9.402975   7.803968   6.783819
    30  H    9.827904  10.727618   9.035645   7.327627   6.255976
    31  H    8.950543   9.789869   8.083149   6.742246   5.935360
    32  C    6.545238   7.265249   5.849258   5.010585   4.787234
    33  H    6.866108   7.499155   6.105101   5.657977   5.599419
    34  H    6.044338   6.722619   5.463217   4.746062   4.697490
    35  H    7.488710   8.240561   6.826806   5.724785   5.257833
    36  O    6.273321   7.061429   5.398869   4.475135   4.169856
    37  N    7.565668   8.511318   6.870223   4.888620   3.721966
    38  H    8.335706   9.282949   7.653134   5.635474   4.418843
                   16         17         18         19         20
    16  H    0.000000
    17  H    1.724549   0.000000
    18  C    2.141337   2.144461   0.000000
    19  H    2.574848   3.035166   1.075369   0.000000
    20  C    2.619025   2.814297   1.513896   2.112722   0.000000
    21  N    3.370761   2.636280   1.453764   2.047550   2.413906
    22  H    3.604973   2.400706   2.105509   2.915620   2.878513
    23  O    2.638289   2.828948   2.421378   3.145866   1.196011
    24  O    2.990870   3.147390   2.717366   2.447771   4.174960
    25  C    5.032685   4.978980   3.345409   3.542166   2.448616
    26  C    4.547259   3.975229   2.479028   2.559628   3.291214
    27  O    5.305451   4.857596   3.593033   4.059101   2.805006
    28  C    6.174691   6.329935   4.495214   4.394284   3.690524
    29  H    7.078387   7.060718   5.328308   5.315516   4.522377
    30  H    6.298947   6.690165   4.897845   4.746098   3.906413
    31  H    6.224593   6.448922   4.435374   4.108904   3.959192
    32  C    5.762998   4.847838   3.805711   4.022438   4.549991
    33  H    6.556621   5.778116   4.564360   4.565218   5.348083
    34  H    5.747478   4.617008   4.035643   4.375147   4.953404
    35  H    6.182124   5.181122   4.209511   4.570859   4.625607
    36  O    4.872795   4.711444   2.815193   2.440439   3.482757
    37  N    3.846805   4.139576   2.416140   2.537702   1.383115
    38  H    4.331321   4.840396   3.265565   3.312794   2.035336
                   21         22         23         24         25
    21  N    0.000000
    22  H    0.990118   0.000000
    23  O    3.306471   3.488513   0.000000
    24  O    3.097088   3.541988   4.905348   0.000000
    25  C    3.348637   3.873050   3.157229   5.842302   0.000000
    26  C    1.359257   2.029430   4.345594   3.633648   3.326519
    27  O    3.216218   3.451876   3.330278   6.105605   1.203865
    28  C    4.536969   5.180550   4.419056   6.747500   1.482200
    29  H    5.153752   5.686228   5.169782   7.598038   2.103842
    30  H    5.216949   5.881594   4.470892   7.175508   2.113508
    31  H    4.436622   5.207991   4.884674   6.349397   2.091715
    32  C    2.422571   2.534430   5.475568   4.635508   4.251312
    33  H    3.294832   3.551063   6.358531   5.077881   4.807204
    34  H    2.619014   2.412712   5.767802   4.470935   5.064769
    35  H    2.841941   2.789932   5.439605   5.498046   3.948097
    36  O    2.260153   3.128968   4.656586   3.860370   3.174909
    37  N    2.985640   3.636162   2.243740   4.935223   1.369353
    38  H    3.972181   4.585444   2.495675   5.723416   1.759895
                   26         27         28         29         30
    26  C    0.000000
    27  O    3.262412   0.000000
    28  C    4.184581   2.411550   0.000000
    29  H    4.688301   2.581136   1.075630   0.000000
    30  H    5.028287   3.146146   1.078524   1.768651   0.000000
    31  H    3.851002   3.031248   1.080434   1.764712   1.749430
    32  C    1.498837   3.835139   5.047921   5.275095   6.021730
    33  H    2.110474   4.524765   5.334837   5.501415   6.336984
    34  H    2.149937   4.559974   6.004262   6.263675   6.941564
    35  H    2.117298   3.289441   4.762052   4.804875   5.777541
    36  O    1.226528   3.505447   3.641612   4.246121   4.432115
    37  N    3.319562   2.245828   2.352516   3.268883   2.556116
    38  H    4.298475   2.751352   2.298054   3.226794   2.065312
                   31         32         33         34         35
    31  H    0.000000
    32  C    4.758164   0.000000
    33  H    4.868713   1.075926   0.000000
    34  H    5.758941   1.080248   1.760341   0.000000
    35  H    4.658850   1.082437   1.753553   1.756115   0.000000
    36  O    3.044618   2.391272   2.532204   3.202439   2.951970
    37  N    2.656010   4.577768   5.196357   5.247269   4.550424
    38  H    2.793187   5.534914   6.115265   6.232957   5.442873
                   36         37         38
    36  O    0.000000
    37  N    3.122882   0.000000
    38  H    3.992389   1.000000   0.000000
 Symmetry turned off by external request.
 Stoichiometry    C14H17N3O4
 Framework group  C1[X(C14H17N3O4)]
 Deg. of freedom   108
 Full point group                 C1      NOp   1
 Rotational constants (GHZ):      0.6805764      0.1481253      0.1327421
 Standard basis: 6-31G(d) (6D, 7F)
   349 basis functions,   656 primitive gaussians,   349 cartesian basis functions
    77 alpha electrons       77 beta electrons
       nuclear repulsion energy      1674.0144627968 Hartrees.
 NAtoms=   38 NActive=   38 NUniq=   38 SFac= 1.00D+00 NAtFMM=   60 NAOKFM=F Big=F
 Integral buffers will be    131072 words long.
 Raffenetti 1 integral format.
 Two-electron integral symmetry is turned off.
 One-electron integrals computed using PRISM.
 NBasis=   349 RedAO= T EigKep=  3.53D-04  NBF=   349
 NBsUse=   349 1.00D-06 EigRej= -1.00D+00 NBFU=   349
 ExpMin= 1.61D-01 ExpMax= 5.48D+03 ExpMxC= 8.25D+02 IAcc=1 IRadAn=         1 AccDes= 0.00D+00
 Harris functional with IExCor=  205 and IRadAn=       1 diagonalized for initial guess.
 HarFok:  IExCor=  205 AccDes= 0.00D+00 IRadAn=         1 IDoV= 1 UseB2=F ITyADJ=14
 ICtDFT=  3500011 ScaDFX=  1.000000  1.000000  1.000000  1.000000
 FoFCou: FMM=F IPFlag=           0 FMFlag=      100000 FMFlg1=           0
         NFxFlg=           0 DoJE=T BraDBF=F KetDBF=T FulRan=T
         wScrn=  0.000000 ICntrl=     500 IOpCl=  0 I1Cent=   200000004 NGrid=           0
         NMat0=    1 NMatS0=      1 NMatT0=    0 NMatD0=    1 NMtDS0=    0 NMtDT0=    0
 Symmetry not used in FoFCou.
 Requested convergence on RMS density matrix=1.00D-08 within 128 cycles.
 Requested convergence on MAX density matrix=1.00D-06.
 Requested convergence on             energy=1.00D-06.
 No special actions if energy rises.
 Integral accuracy reduced to 1.0D-05 until final iterations.
 Initial convergence to 1.0D-05 achieved.  Increase integral accuracy.
 SCF Done:  E(RHF) =  -1002.87749911     A.U. after   16 cycles
            NFock= 16  Conv=0.47D-08     -V/T= 2.0014

 **********************************************************************

            Population analysis using the SCF density.

 **********************************************************************

 Alpha  occ. eigenvalues --  -20.57169 -20.55122 -20.54526 -20.51872 -15.59176
 Alpha  occ. eigenvalues --  -15.58366 -15.56657 -11.36875 -11.36350 -11.35078
 Alpha  occ. eigenvalues --  -11.34061 -11.30487 -11.28521 -11.25242 -11.25216
 Alpha  occ. eigenvalues --  -11.24694 -11.23635 -11.23367 -11.22987 -11.22735
 Alpha  occ. eigenvalues --  -11.22391  -1.43398  -1.40030  -1.38409  -1.37289
 Alpha  occ. eigenvalues --   -1.25500  -1.23981  -1.23812  -1.14494  -1.08189
 Alpha  occ. eigenvalues --   -1.04626  -1.02946  -1.00471  -0.99879  -0.94595
 Alpha  occ. eigenvalues --   -0.87481  -0.84858  -0.82777  -0.80105  -0.77384
 Alpha  occ. eigenvalues --   -0.76380  -0.72770  -0.71769  -0.70135  -0.69125
 Alpha  occ. eigenvalues --   -0.68057  -0.67683  -0.66936  -0.65479  -0.63614
 Alpha  occ. eigenvalues --   -0.62944  -0.61847  -0.61178  -0.60739  -0.60174
 Alpha  occ. eigenvalues --   -0.59672  -0.58505  -0.57802  -0.57314  -0.56333
 Alpha  occ. eigenvalues --   -0.54694  -0.53774  -0.53341  -0.52629  -0.51894
 Alpha  occ. eigenvalues --   -0.51285  -0.50657  -0.49666  -0.46868  -0.45169
 Alpha  occ. eigenvalues --   -0.43346  -0.42401  -0.41771  -0.41105  -0.38681
 Alpha  occ. eigenvalues --   -0.35226  -0.29261
 Alpha virt. eigenvalues --    0.08792   0.13993   0.15634   0.18580   0.19949
 Alpha virt. eigenvalues --    0.21309   0.21840   0.22478   0.23445   0.24468
 Alpha virt. eigenvalues --    0.25964   0.28410   0.29556   0.29691   0.30197
 Alpha virt. eigenvalues --    0.31135   0.31240   0.32533   0.33040   0.34097
 Alpha virt. eigenvalues --    0.34427   0.34689   0.35929   0.38376   0.39126
 Alpha virt. eigenvalues --    0.39353   0.40686   0.41546   0.43371   0.44895
 Alpha virt. eigenvalues --    0.46073   0.47336   0.48093   0.50143   0.50705
 Alpha virt. eigenvalues --    0.52574   0.53318   0.54746   0.56445   0.58845
 Alpha virt. eigenvalues --    0.60372   0.60878   0.62684   0.69942   0.71216
 Alpha virt. eigenvalues --    0.71754   0.73078   0.73982   0.74406   0.74780
 Alpha virt. eigenvalues --    0.76183   0.77209   0.77755   0.78273   0.78572
 Alpha virt. eigenvalues --    0.79290   0.80681   0.80936   0.81561   0.82010
 Alpha virt. eigenvalues --    0.82594   0.83024   0.83762   0.84851   0.85143
 Alpha virt. eigenvalues --    0.86320   0.89660   0.90712   0.91124   0.92306
 Alpha virt. eigenvalues --    0.92712   0.93024   0.93297   0.94812   0.95060
 Alpha virt. eigenvalues --    0.96989   0.98000   1.00004   1.00460   1.00972
 Alpha virt. eigenvalues --    1.04426   1.05335   1.06106   1.07481   1.08828
 Alpha virt. eigenvalues --    1.08971   1.09601   1.10107   1.10351   1.11298
 Alpha virt. eigenvalues --    1.11845   1.12908   1.14210   1.14905   1.15549
 Alpha virt. eigenvalues --    1.16607   1.17262   1.17525   1.18334   1.18540
 Alpha virt. eigenvalues --    1.19989   1.20103   1.20504   1.21043   1.21540
 Alpha virt. eigenvalues --    1.22505   1.23838   1.24607   1.25031   1.26029
 Alpha virt. eigenvalues --    1.26944   1.27922   1.28847   1.30365   1.32045
 Alpha virt. eigenvalues --    1.32500   1.33117   1.34624   1.35890   1.38216
 Alpha virt. eigenvalues --    1.39321   1.40997   1.42413   1.44216   1.46515
 Alpha virt. eigenvalues --    1.47177   1.49279   1.50278   1.53825   1.54157
 Alpha virt. eigenvalues --    1.55581   1.58420   1.59141   1.59819   1.61123
 Alpha virt. eigenvalues --    1.64152   1.65613   1.66372   1.67876   1.68635
 Alpha virt. eigenvalues --    1.70210   1.71100   1.73069   1.74056   1.75333
 Alpha virt. eigenvalues --    1.75823   1.77458   1.79087   1.80547   1.85017
 Alpha virt. eigenvalues --    1.87439   1.89044   1.90660   1.92741   1.95120
 Alpha virt. eigenvalues --    1.96598   1.97784   2.01364   2.01830   2.02972
 Alpha virt. eigenvalues --    2.04506   2.04908   2.06969   2.07590   2.08058
 Alpha virt. eigenvalues --    2.09437   2.10299   2.10810   2.12309   2.13610
 Alpha virt. eigenvalues --    2.14350   2.16853   2.18085   2.18955   2.19761
 Alpha virt. eigenvalues --    2.20216   2.21415   2.23821   2.25170   2.26152
 Alpha virt. eigenvalues --    2.27185   2.28685   2.30248   2.30304   2.31698
 Alpha virt. eigenvalues --    2.33800   2.35591   2.36054   2.37255   2.38435
 Alpha virt. eigenvalues --    2.39913   2.40252   2.42885   2.45884   2.46195
 Alpha virt. eigenvalues --    2.50130   2.50775   2.51800   2.52725   2.54407
 Alpha virt. eigenvalues --    2.56078   2.57324   2.58340   2.59423   2.61393
 Alpha virt. eigenvalues --    2.62335   2.62926   2.64006   2.68267   2.69423
 Alpha virt. eigenvalues --    2.70418   2.73045   2.74068   2.75237   2.76682
 Alpha virt. eigenvalues --    2.80197   2.81145   2.82192   2.85037   2.86721
 Alpha virt. eigenvalues --    2.89375   2.91505   2.93847   2.93999   2.95406
 Alpha virt. eigenvalues --    2.96489   2.98711   3.01711   3.02712   3.03686
 Alpha virt. eigenvalues --    3.05827   3.07255   3.10209   3.12345   3.14874
 Alpha virt. eigenvalues --    3.21312   3.22417   3.23503   3.28767   3.30729
 Alpha virt. eigenvalues --    3.32205   3.35766   3.37730   3.39007   3.40475
 Alpha virt. eigenvalues --    3.43145   3.44362   3.54966   3.56838   3.64437
 Alpha virt. eigenvalues --    3.83223   4.31227   4.42356   4.43301   4.47257
 Alpha virt. eigenvalues --    4.48252   4.51678   4.53542   4.55005   4.56735
 Alpha virt. eigenvalues --    4.61692   4.63950   4.66997   4.76274   4.77431
 Alpha virt. eigenvalues --    4.81598   4.84814   4.91564   4.93635   5.04446
 Alpha virt. eigenvalues --    5.08536   5.18904
          Condensed to atoms (all electrons):
               1          2          3          4          5          6
     1  C    5.011172   0.529612  -0.036969  -0.040147  -0.051411   0.573147
     2  C    0.529612   4.384803   0.552319  -0.034922  -0.027292  -0.029595
     3  C   -0.036969   0.552319   5.105908   0.504661  -0.044307  -0.030100
     4  C   -0.040147  -0.034922   0.504661   4.909507   0.570538  -0.042853
     5  C   -0.051411  -0.027292  -0.044307   0.570538   4.944347   0.525333
     6  C    0.573147  -0.029595  -0.030100  -0.042853   0.525333   4.828105
     7  H    0.380462  -0.036622   0.002660   0.000250   0.002493  -0.025341
     8  H    0.000375   0.001381  -0.033147   0.381138  -0.025864   0.002792
     9  H    0.002466   0.000411   0.001499  -0.028775   0.386219  -0.029453
    10  H   -0.029510   0.001650   0.000456   0.002816  -0.028820   0.380670
    11  N   -0.073435   0.338294  -0.060455   0.003904   0.000167   0.003100
    12  H   -0.001199  -0.032186   0.002809  -0.000079   0.000004   0.000100
    13  H    0.003027  -0.011734  -0.006797  -0.000108   0.000013  -0.000096
    14  C    0.003859  -0.037023   0.394092  -0.037912   0.002543  -0.000350
    15  C   -0.000013   0.003879  -0.108254  -0.004504  -0.000024  -0.000025
    16  H   -0.000001  -0.000187  -0.001377  -0.001002   0.000025   0.000000
    17  H   -0.000015  -0.000096   0.003814  -0.002973   0.000033   0.000003
    18  C    0.000001  -0.000079   0.004290   0.000303   0.000001   0.000000
    19  H    0.000000  -0.000010   0.000431  -0.000020   0.000000   0.000000
    20  C    0.000000   0.000001  -0.000058  -0.000010   0.000000   0.000000
    21  N    0.000000   0.000010  -0.000577  -0.000006   0.000000   0.000000
    22  H    0.000000   0.000000  -0.000054  -0.000006   0.000000   0.000000
    23  O    0.000000   0.000000  -0.000011   0.000005   0.000000   0.000000
    24  O    0.000369  -0.000797  -0.070582   0.003005  -0.000037  -0.000010
    25  C    0.000000   0.000000   0.000000   0.000000   0.000000   0.000000
    26  C    0.000000   0.000000  -0.000011   0.000000   0.000000   0.000000
    27  O    0.000000   0.000000   0.000000   0.000000   0.000000   0.000000
    28  C    0.000000   0.000000   0.000000   0.000000   0.000000   0.000000
    29  H    0.000000   0.000000   0.000000   0.000000   0.000000   0.000000
    30  H    0.000000   0.000000   0.000000   0.000000   0.000000   0.000000
    31  H    0.000000   0.000000   0.000000   0.000000   0.000000   0.000000
    32  C    0.000000   0.000000   0.000000   0.000000   0.000000   0.000000
    33  H    0.000000   0.000000   0.000000   0.000000   0.000000   0.000000
    34  H    0.000000   0.000000   0.000001   0.000000   0.000000   0.000000
    35  H    0.000000   0.000000   0.000000   0.000000   0.000000   0.000000
    36  O    0.000000   0.000000  -0.000001   0.000000   0.000000   0.000000
    37  N    0.000000   0.000000   0.000000   0.000000   0.000000   0.000000
    38  H    0.000000   0.000000   0.000000   0.000000   0.000000   0.000000
               7          8          9         10         11         12
     1  C    0.380462   0.000375   0.002466  -0.029510  -0.073435  -0.001199
     2  C   -0.036622   0.001381   0.000411   0.001650   0.338294  -0.032186
     3  C    0.002660  -0.033147   0.001499   0.000456  -0.060455   0.002809
     4  C    0.000250   0.381138  -0.028775   0.002816   0.003904  -0.000079
     5  C    0.002493  -0.025864   0.386219  -0.028820   0.000167   0.000004
     6  C   -0.025341   0.002792  -0.029453   0.380670   0.003100   0.000100
     7  H    0.478529   0.000011  -0.000118  -0.001995  -0.002773   0.004073
     8  H    0.000011   0.457896  -0.001511  -0.000129  -0.000064   0.000002
     9  H   -0.000118  -0.001511   0.467237  -0.001325   0.000004   0.000000
    10  H   -0.001995  -0.000129  -0.001325   0.464465  -0.000097  -0.000011
    11  N   -0.002773  -0.000064   0.000004  -0.000097   7.154258   0.334645
    12  H    0.004073   0.000002   0.000000  -0.000011   0.334645   0.320983
    13  H    0.000008  -0.000004   0.000000   0.000001   0.301073  -0.011841
    14  C   -0.000090  -0.003244  -0.000082   0.000007  -0.005971  -0.000034
    15  C    0.000002  -0.000124   0.000005   0.000000  -0.000279   0.000009
    16  H    0.000000  -0.000649  -0.000001   0.000000   0.000003   0.000000
    17  H    0.000000  -0.001121  -0.000004   0.000000   0.000008   0.000000
    18  C    0.000000   0.000279   0.000000   0.000000   0.000007   0.000000
    19  H    0.000000  -0.000005   0.000000   0.000000   0.000002   0.000000
    20  C    0.000000  -0.000008   0.000000   0.000000   0.000000   0.000000
    21  N    0.000000  -0.000007   0.000000   0.000000  -0.000001   0.000000
    22  H    0.000000  -0.000007   0.000000   0.000000   0.000000   0.000000
    23  O    0.000000   0.000000   0.000000   0.000000   0.000000   0.000000
    24  O    0.000005   0.000057   0.000000   0.000000  -0.026557   0.000685
    25  C    0.000000   0.000000   0.000000   0.000000   0.000000   0.000000
    26  C    0.000000   0.000000   0.000000   0.000000   0.000000   0.000000
    27  O    0.000000   0.000000   0.000000   0.000000   0.000000   0.000000
    28  C    0.000000   0.000000   0.000000   0.000000   0.000000   0.000000
    29  H    0.000000   0.000000   0.000000   0.000000   0.000000   0.000000
    30  H    0.000000   0.000000   0.000000   0.000000   0.000000   0.000000
    31  H    0.000000   0.000000   0.000000   0.000000   0.000000   0.000000
    32  C    0.000000   0.000000   0.000000   0.000000   0.000000   0.000000
    33  H    0.000000   0.000000   0.000000   0.000000   0.000000   0.000000
    34  H    0.000000   0.000000   0.000000   0.000000   0.000000   0.000000
    35  H    0.000000   0.000000   0.000000   0.000000   0.000000   0.000000
    36  O    0.000000   0.000000   0.000000   0.000000   0.000000   0.000000
    37  N    0.000000   0.000000   0.000000   0.000000   0.000000   0.000000
    38  H    0.000000   0.000000   0.000000   0.000000   0.000000   0.000000
              13         14         15         16         17         18
     1  C    0.003027   0.003859  -0.000013  -0.000001  -0.000015   0.000001
     2  C   -0.011734  -0.037023   0.003879  -0.000187  -0.000096  -0.000079
     3  C   -0.006797   0.394092  -0.108254  -0.001377   0.003814   0.004290
     4  C   -0.000108  -0.037912  -0.004504  -0.001002  -0.002973   0.000303
     5  C    0.000013   0.002543  -0.000024   0.000025   0.000033   0.000001
     6  C   -0.000096  -0.000350  -0.000025   0.000000   0.000003   0.000000
     7  H    0.000008  -0.000090   0.000002   0.000000   0.000000   0.000000
     8  H   -0.000004  -0.003244  -0.000124  -0.000649  -0.001121   0.000279
     9  H    0.000000  -0.000082   0.000005  -0.000001  -0.000004   0.000000
    10  H    0.000001   0.000007   0.000000   0.000000   0.000000   0.000000
    11  N    0.301073  -0.005971  -0.000279   0.000003   0.000008   0.000007
    12  H   -0.011841  -0.000034   0.000009   0.000000   0.000000   0.000000
    13  H    0.246751  -0.001038   0.000533  -0.000012  -0.000015  -0.000001
    14  C   -0.001038   4.335862   0.334668  -0.025704  -0.034948  -0.038314
    15  C    0.000533   0.334668   5.351458   0.389438   0.384708   0.311499
    16  H   -0.000012  -0.025704   0.389438   0.460588  -0.019986  -0.034688
    17  H   -0.000015  -0.034948   0.384708  -0.019986   0.497357  -0.031503
    18  C   -0.000001  -0.038314   0.311499  -0.034688  -0.031503   5.102532
    19  H   -0.000009  -0.003067  -0.030698  -0.000488   0.003028   0.396068
    20  C    0.000000   0.003458  -0.063142  -0.000121  -0.003293   0.363326
    21  N   -0.000001  -0.001135  -0.052778   0.003344  -0.002580   0.185633
    22  H    0.000000  -0.000049  -0.002258  -0.000028   0.003541  -0.024762
    23  O    0.000000   0.000486   0.007097   0.002123   0.001877  -0.076565
    24  O    0.028159   0.524981  -0.087331   0.000747   0.001688   0.000606
    25  C    0.000000  -0.000001  -0.000046   0.000002  -0.000006   0.001572
    26  C    0.000000  -0.000217   0.001861  -0.000001  -0.000068  -0.023104
    27  O    0.000000   0.000000   0.000025   0.000000  -0.000003  -0.002728
    28  C    0.000000   0.000000   0.000005   0.000000   0.000000  -0.000630
    29  H    0.000000   0.000000   0.000000   0.000000   0.000000   0.000006
    30  H    0.000000   0.000000   0.000000   0.000000   0.000000  -0.000020
    31  H    0.000000   0.000000   0.000000   0.000000   0.000000   0.000135
    32  C    0.000000  -0.000031  -0.000050   0.000001  -0.000007   0.004788
    33  H    0.000000   0.000000   0.000002   0.000000   0.000000  -0.000091
    34  H    0.000000   0.000019  -0.000027   0.000000   0.000001  -0.000116
    35  H    0.000000   0.000000  -0.000003   0.000000   0.000000  -0.000213
    36  O    0.000000  -0.000149   0.000637  -0.000001  -0.000006   0.009280
    37  N    0.000000  -0.000034   0.004687   0.000094   0.000026  -0.125385
    38  H    0.000000   0.000001  -0.000115  -0.000007  -0.000001   0.004906
              19         20         21         22         23         24
     1  C    0.000000   0.000000   0.000000   0.000000   0.000000   0.000369
     2  C   -0.000010   0.000001   0.000010   0.000000   0.000000  -0.000797
     3  C    0.000431  -0.000058  -0.000577  -0.000054  -0.000011  -0.070582
     4  C   -0.000020  -0.000010  -0.000006  -0.000006   0.000005   0.003005
     5  C    0.000000   0.000000   0.000000   0.000000   0.000000  -0.000037
     6  C    0.000000   0.000000   0.000000   0.000000   0.000000  -0.000010
     7  H    0.000000   0.000000   0.000000   0.000000   0.000000   0.000005
     8  H   -0.000005  -0.000008  -0.000007  -0.000007   0.000000   0.000057
     9  H    0.000000   0.000000   0.000000   0.000000   0.000000   0.000000
    10  H    0.000000   0.000000   0.000000   0.000000   0.000000   0.000000
    11  N    0.000002   0.000000  -0.000001   0.000000   0.000000  -0.026557
    12  H    0.000000   0.000000   0.000000   0.000000   0.000000   0.000685
    13  H   -0.000009   0.000000  -0.000001   0.000000   0.000000   0.028159
    14  C   -0.003067   0.003458  -0.001135  -0.000049   0.000486   0.524981
    15  C   -0.030698  -0.063142  -0.052778  -0.002258   0.007097  -0.087331
    16  H   -0.000488  -0.000121   0.003344  -0.000028   0.002123   0.000747
    17  H    0.003028  -0.003293  -0.002580   0.003541   0.001877   0.001688
    18  C    0.396068   0.363326   0.185633  -0.024762  -0.076565   0.000606
    19  H    0.397233  -0.037904  -0.030476   0.002421   0.001609   0.007923
    20  C   -0.037904   4.211742  -0.058754   0.000540   0.599967   0.000322
    21  N   -0.030476  -0.058754   7.397187   0.323167   0.000670  -0.001442
    22  H    0.002421   0.000540   0.323167   0.318749   0.000297  -0.000009
    23  O    0.001609   0.599967   0.000670   0.000297   8.086942  -0.000002
    24  O    0.007923   0.000322  -0.001442  -0.000009  -0.000002   8.241690
    25  C    0.000037  -0.006912  -0.004459  -0.000010   0.001396   0.000000
    26  C   -0.000390  -0.000634   0.250787  -0.015557  -0.000041   0.002058
    27  O   -0.000028   0.016744  -0.000154   0.000234  -0.000854   0.000000
    28  C   -0.000038   0.003710   0.000038   0.000003  -0.000135   0.000000
    29  H    0.000001  -0.000009  -0.000001   0.000000   0.000004   0.000000
    30  H    0.000002  -0.000226  -0.000004   0.000000   0.000012   0.000000
    31  H   -0.000002  -0.000445  -0.000025  -0.000001  -0.000002   0.000000
    32  C    0.000452  -0.000336  -0.115498  -0.000133   0.000000   0.000010
    33  H    0.000002   0.000001   0.004136  -0.000003   0.000000   0.000000
    34  H   -0.000032   0.000010   0.004126   0.000710   0.000000   0.000009
    35  H   -0.000013   0.000063   0.000484   0.000136   0.000000   0.000000
    36  O    0.007770  -0.003528  -0.104565   0.002312  -0.000003  -0.000127
    37  N    0.003412   0.244931   0.010687   0.000001  -0.105268  -0.000004
    38  H   -0.000327  -0.019447  -0.000190  -0.000002   0.002482   0.000000
              25         26         27         28         29         30
     1  C    0.000000   0.000000   0.000000   0.000000   0.000000   0.000000
     2  C    0.000000   0.000000   0.000000   0.000000   0.000000   0.000000
     3  C    0.000000  -0.000011   0.000000   0.000000   0.000000   0.000000
     4  C    0.000000   0.000000   0.000000   0.000000   0.000000   0.000000
     5  C    0.000000   0.000000   0.000000   0.000000   0.000000   0.000000
     6  C    0.000000   0.000000   0.000000   0.000000   0.000000   0.000000
     7  H    0.000000   0.000000   0.000000   0.000000   0.000000   0.000000
     8  H    0.000000   0.000000   0.000000   0.000000   0.000000   0.000000
     9  H    0.000000   0.000000   0.000000   0.000000   0.000000   0.000000
    10  H    0.000000   0.000000   0.000000   0.000000   0.000000   0.000000
    11  N    0.000000   0.000000   0.000000   0.000000   0.000000   0.000000
    12  H    0.000000   0.000000   0.000000   0.000000   0.000000   0.000000
    13  H    0.000000   0.000000   0.000000   0.000000   0.000000   0.000000
    14  C   -0.000001  -0.000217   0.000000   0.000000   0.000000   0.000000
    15  C   -0.000046   0.001861   0.000025   0.000005   0.000000   0.000000
    16  H    0.000002  -0.000001   0.000000   0.000000   0.000000   0.000000
    17  H   -0.000006  -0.000068  -0.000003   0.000000   0.000000   0.000000
    18  C    0.001572  -0.023104  -0.002728  -0.000630   0.000006  -0.000020
    19  H    0.000037  -0.000390  -0.000028  -0.000038   0.000001   0.000002
    20  C   -0.006912  -0.000634   0.016744   0.003710  -0.000009  -0.000226
    21  N   -0.004459   0.250787  -0.000154   0.000038  -0.000001  -0.000004
    22  H   -0.000010  -0.015557   0.000234   0.000003   0.000000   0.000000
    23  O    0.001396  -0.000041  -0.000854  -0.000135   0.000004   0.000012
    24  O    0.000000   0.002058   0.000000   0.000000   0.000000   0.000000
    25  C    4.228805   0.003406   0.607113   0.382886  -0.037298  -0.033073
    26  C    0.003406   4.138670   0.003390  -0.000075  -0.000006   0.000010
    27  O    0.607113   0.003390   8.128640  -0.059339   0.002349   0.001796
    28  C    0.382886  -0.000075  -0.059339   5.251245   0.383991   0.373667
    29  H   -0.037298  -0.000006   0.002349   0.383991   0.470469  -0.020124
    30  H   -0.033073   0.000010   0.001796   0.373667  -0.020124   0.521633
    31  H   -0.027144  -0.000110   0.000057   0.378417  -0.015365  -0.021651
    32  C   -0.000145   0.374127  -0.000731  -0.000019   0.000001   0.000000
    33  H    0.000002  -0.032290   0.000004   0.000000   0.000000   0.000000
    34  H    0.000009  -0.035864   0.000005   0.000000   0.000000   0.000000
    35  H    0.000000  -0.027266   0.001487   0.000011   0.000000   0.000000
    36  O    0.005136   0.580674  -0.001040  -0.001439   0.000005   0.000019
    37  N    0.219982  -0.003625  -0.121515  -0.131962   0.005673   0.000377
    38  H   -0.019961   0.000132   0.002128  -0.006772  -0.000237   0.003666
              31         32         33         34         35         36
     1  C    0.000000   0.000000   0.000000   0.000000   0.000000   0.000000
     2  C    0.000000   0.000000   0.000000   0.000000   0.000000   0.000000
     3  C    0.000000   0.000000   0.000000   0.000001   0.000000  -0.000001
     4  C    0.000000   0.000000   0.000000   0.000000   0.000000   0.000000
     5  C    0.000000   0.000000   0.000000   0.000000   0.000000   0.000000
     6  C    0.000000   0.000000   0.000000   0.000000   0.000000   0.000000
     7  H    0.000000   0.000000   0.000000   0.000000   0.000000   0.000000
     8  H    0.000000   0.000000   0.000000   0.000000   0.000000   0.000000
     9  H    0.000000   0.000000   0.000000   0.000000   0.000000   0.000000
    10  H    0.000000   0.000000   0.000000   0.000000   0.000000   0.000000
    11  N    0.000000   0.000000   0.000000   0.000000   0.000000   0.000000
    12  H    0.000000   0.000000   0.000000   0.000000   0.000000   0.000000
    13  H    0.000000   0.000000   0.000000   0.000000   0.000000   0.000000
    14  C    0.000000  -0.000031   0.000000   0.000019   0.000000  -0.000149
    15  C    0.000000  -0.000050   0.000002  -0.000027  -0.000003   0.000637
    16  H    0.000000   0.000001   0.000000   0.000000   0.000000  -0.000001
    17  H    0.000000  -0.000007   0.000000   0.000001   0.000000  -0.000006
    18  C    0.000135   0.004788  -0.000091  -0.000116  -0.000213   0.009280
    19  H   -0.000002   0.000452   0.000002  -0.000032  -0.000013   0.007770
    20  C   -0.000445  -0.000336   0.000001   0.000010   0.000063  -0.003528
    21  N   -0.000025  -0.115498   0.004136   0.004126   0.000484  -0.104565
    22  H   -0.000001  -0.000133  -0.000003   0.000710   0.000136   0.002312
    23  O   -0.000002   0.000000   0.000000   0.000000   0.000000  -0.000003
    24  O    0.000000   0.000010   0.000000   0.000009   0.000000  -0.000127
    25  C   -0.027144  -0.000145   0.000002   0.000009   0.000000   0.005136
    26  C   -0.000110   0.374127  -0.032290  -0.035864  -0.027266   0.580674
    27  O    0.000057  -0.000731   0.000004   0.000005   0.001487  -0.001040
    28  C    0.378417  -0.000019   0.000000   0.000000   0.000011  -0.001439
    29  H   -0.015365   0.000001   0.000000   0.000000   0.000000   0.000005
    30  H   -0.021651   0.000000   0.000000   0.000000   0.000000   0.000019
    31  H    0.436229   0.000024   0.000001   0.000000  -0.000013   0.002978
    32  C    0.000024   5.260085   0.385149   0.374265   0.375706  -0.066822
    33  H    0.000001   0.385149   0.460950  -0.020803  -0.016538   0.003102
    34  H    0.000000   0.374265  -0.020803   0.520655  -0.023665   0.002092
    35  H   -0.000013   0.375706  -0.016538  -0.023665   0.472040  -0.000078
    36  O    0.002978  -0.066822   0.003102   0.002092  -0.000078   8.203092
    37  N   -0.000337   0.000023   0.000000  -0.000003  -0.000006  -0.000549
    38  H    0.000110   0.000001   0.000000   0.000000   0.000000   0.000096
              37         38
     1  C    0.000000   0.000000
     2  C    0.000000   0.000000
     3  C    0.000000   0.000000
     4  C    0.000000   0.000000
     5  C    0.000000   0.000000
     6  C    0.000000   0.000000
     7  H    0.000000   0.000000
     8  H    0.000000   0.000000
     9  H    0.000000   0.000000
    10  H    0.000000   0.000000
    11  N    0.000000   0.000000
    12  H    0.000000   0.000000
    13  H    0.000000   0.000000
    14  C   -0.000034   0.000001
    15  C    0.004687  -0.000115
    16  H    0.000094  -0.000007
    17  H    0.000026  -0.000001
    18  C   -0.125385   0.004906
    19  H    0.003412  -0.000327
    20  C    0.244931  -0.019447
    21  N    0.010687  -0.000190
    22  H    0.000001  -0.000002
    23  O   -0.105268   0.002482
    24  O   -0.000004   0.000000
    25  C    0.219982  -0.019961
    26  C   -0.003625   0.000132
    27  O   -0.121515   0.002128
    28  C   -0.131962  -0.006772
    29  H    0.005673  -0.000237
    30  H    0.000377   0.003666
    31  H   -0.000337   0.000110
    32  C    0.000023   0.000001
    33  H    0.000000   0.000000
    34  H   -0.000003   0.000000
    35  H   -0.000006   0.000000
    36  O   -0.000549   0.000096
    37  N    7.487483   0.300057
    38  H    0.300057   0.347812
 Mulliken charges:
               1
     1  C   -0.271790
     2  C    0.398181
     3  C   -0.180239
     4  C   -0.182808
     5  C   -0.253959
     6  C   -0.155427
     7  H    0.198448
     8  H    0.221957
     9  H    0.203429
    10  H    0.211822
    11  N   -0.965832
    12  H    0.382041
    13  H    0.452091
    14  C    0.589420
    15  C   -0.440843
    16  H    0.227886
    17  H    0.200542
    18  C   -0.027032
    19  H    0.283113
    20  C    0.750012
    21  N   -0.807615
    22  H    0.390769
    23  O   -0.522086
    24  O   -0.625415
    25  C    0.678709
    26  C    0.784143
    27  O   -0.577582
    28  C   -0.573561
    29  H    0.210542
    30  H    0.173915
    31  H    0.247143
    32  C   -0.590860
    33  H    0.216376
    34  H    0.178608
    35  H    0.217866
    36  O   -0.638886
    37  N   -0.788746
    38  H    0.385666
 Sum of Mulliken charges =   0.00000
 Mulliken charges with hydrogens summed into heavy atoms:
               1
     1  C   -0.073342
     2  C    0.398181
     3  C   -0.180239
     4  C    0.039149
     5  C   -0.050529
     6  C    0.056394
    11  N   -0.131700
    14  C    0.589420
    15  C   -0.012415
    18  C    0.256081
    20  C    0.750012
    21  N   -0.416846
    23  O   -0.522086
    24  O   -0.625415
    25  C    0.678709
    26  C    0.784143
    27  O   -0.577582
    28  C    0.058039
    32  C    0.021991
    36  O   -0.638886
    37  N   -0.403080
 DipInt: DoE/N= T F RetVal/Mat= T F Init=T NMatP=  1 IDeriv=0 Min/MaxMlt=  0  4
 Entering OneElI...
 OneElI was handed    33240992 working-precision words.
 Multipole integrals L=0 to 4 MinM= 0 MaxM= 0.
 Requested accuracy = 0.1000D-12
 PrtBox:  NBox=     1 Levels=  1 BoxLen=   35.86 SMaxX=       23.78
          Shift=            3.845872            7.624389            3.371923
 Box      1 Number                   0 centers from      1 to    118:
 ShPair: Thresh= 1.00D-13 NBox=     1 BxSize= 3.59D+01 RnKept= 2.13D+01
         NSMCal=                 7021 NSMKep=                5140
 PrsmSu:  NPrtUS=   1 ThrOK=F IAlg=1 NPAlg=1 LenDen=           0.
 Prism:   IPart=     0 DynPar=F LinDyn=F Incr=          51.
 PRISM was handed    32785456 working-precision words and  5140 shell-pairs
 IPart=  0 NShTot=        5140 NBatch=          60 AvBLen=        85.7
 PrSmSu:  NxtVal=             52.
 Electronic moments (au):
       -154.00000000       -597.01210921        174.66819251      -1412.17643041
      -3951.61793179       -893.19346614     -18619.04672183        670.68283936
      -7058.16531660       2454.10161130     -27509.67419575       4471.83529099
    -266626.09619271      -3081.68420092       3732.32064215     -48407.81454187
    -100988.97552730      35095.30364578     -11755.05250248       9882.30248325
    -213659.86802966     -27904.51996889   -4062854.89910915      25074.14694486
    -358102.41548243      13223.80233342      60798.10001012   -1523667.40132006
     512881.41888102     -16702.48467913    -697794.03715349    -163121.86013275
      57692.30485384     -42849.32658860     148748.59983421
 Electronic spatial extent (au):  <R**2>=          23463.8581
 DipInt: DoE/N= F T RetVal/Mat= T F Init=T NMatP=  1 IDeriv=0 Min/MaxMlt=  0  4
 Nuclear    moments (au):
        154.00000000        596.73718425       -174.56406975       1411.08733158
       3856.43190628        804.71823388      18522.61310217       -664.66702403
       7059.82576883      -2447.29859214      26300.61409761      -4204.21285632
     264255.80536404       2724.20309181      -3560.99937302      47526.18599935
     100763.28585024     -34833.25727280      10983.75897887      -9764.88282280
     198312.78053475      25061.09364300    4003615.48691150     -23259.17472150
     344306.84449025     -12070.94835623     -56927.90454187    1515020.84803341
    -505610.77164115      13724.66168790     684853.72934428     152197.24292352
     -55048.36441724      38565.01470099    -146312.61756743
 Total      moments (au):
          0.00000000         -0.27492495          0.10412276         -1.08909883
        -95.18602551        -88.47523226        -96.43361966          6.01581533
          1.66045223          6.80301916      -1209.06009814        267.62243468
      -2370.29082867       -357.48110912        171.32126912       -881.62854252
       -225.68967706        262.04637298       -771.29352361        117.41966046
     -15347.08749492      -2843.42632588     -59239.41219765       1814.97222336
     -13795.57099218       1152.85397718       3870.19546825      -8646.55328665
       7270.64723987      -2977.82299123     -12940.30780921     -10924.61720923
       2643.94043660      -4284.31188762       2435.98226678
 Traceless Quadrup. (au):
         -1.82106637          4.88972688         -3.06866052          6.01581533
          1.66045223          6.80301916
 Charge=              0.0000 electrons
 Dipole moment (field-independent basis, Debye):
    X=             -0.6988    Y=              0.2647    Z=             -2.7682  Tot=              2.8673
 Quadrupole moment (field-independent basis, Debye-Ang):
   XX=           -128.0285   YY=           -119.0022   ZZ=           -129.7065
   XY=              8.0915   XZ=              2.2334   YZ=              9.1503
 Traceless Quadrupole moment (field-independent basis, Debye-Ang):
   XX=             -2.4494   YY=              6.5768   ZZ=             -4.1275
   XY=              8.0915   XZ=              2.2334   YZ=              9.1503
 Octapole moment (field-independent basis, Debye-Ang**2):
  XXX=           -860.5623  YYY=            190.4833  ZZZ=          -1687.0816  XYY=           -254.4413
  XXY=            121.9399  XXZ=           -627.5092  XZZ=           -160.6372  YZZ=            186.5145
  YYZ=           -548.9770  XYZ=             83.5748
 Hexadecapole moment (field-independent basis, Debye-Ang**3):
 XXXX=          -5780.4487 YYYY=          -1070.9706 ZZZZ=         -22312.4018 XXXY=            683.6055
 XXXZ=          -5196.0732 YYYX=            434.2201 YYYZ=           1457.7011 ZZZX=          -3256.7064
 ZZZY=           2738.4742 XXYY=          -1121.5909 XXZZ=          -4873.9401 YYZZ=          -4114.7344
 XXYZ=            995.8347 YYXZ=          -1613.6772 ZZXY=            917.5077
 N-N= 1.674014462797D+03 E-N=-5.698765280433D+03  KE= 1.001480879107D+03
 Entering OneElI...
 OneElI was handed    33300768 working-precision words.
 Calculate electrostatic properties
    NBasis =   349  MinDer = 0  MaxDer = 0
    NGrid  =    38  NMatD  =   1
 Requested accuracy = 0.1000D-12
 PrtBox:  NBox=     1 Levels=  1 BoxLen=   29.89 SMaxX=       23.78
          Shift=            3.845872            7.624389            3.371923
 Box      1 Number                   0 centers from      1 to    118:
 ShPair: Thresh= 1.00D-13 NBox=     1 BxSize= 2.99D+01 RnKept= 1.82D+01
         NSMCal=                 7021 NSMKep=                4512
 PrsmSu:  NPrtUS=   1 ThrOK=F IAlg=1 NPAlg=1 LenDen=           0.
 Prism:   IPart=     0 DynPar=F LinDyn=F Incr=         512.
 PRISM was handed    32889832 working-precision words and  4512 shell-pairs
 IPart=  0 NShTot=      171456 NBatch=        4512 AvBLen=        38.0
 PrSmSu:  NxtVal=            513.
 --------------------------------------------------------
       Center         ----      EFG at Nuclei      ----
                      3XX-RR        3YY-RR        3ZZ-RR
 --------------------------------------------------------
     1   Atom        0.102702     -0.157553      0.054851
     2   Atom        0.159698     -0.476196      0.316498
     3   Atom        0.046915     -0.052752      0.005838
     4   Atom        0.173266     -0.436150      0.262884
     5   Atom        0.082832     -0.198403      0.115571
     6   Atom        0.267145     -0.459031      0.191886
     7   Atom       -0.230284      0.189796      0.040488
     8   Atom       -0.228858      0.179434      0.049424
     9   Atom       -0.207842      0.188076      0.019766
    10   Atom        0.159181      0.175197     -0.334379
    11   Atom       -0.646356      0.989933     -0.343577
    12   Atom       -0.287787      0.279248      0.008538
    13   Atom        0.174816      0.257368     -0.432184
    14   Atom        0.295163     -0.639594      0.344431
    15   Atom        0.018599      0.026810     -0.045409
    16   Atom        0.062222     -0.198251      0.136029
    17   Atom        0.005945     -0.071063      0.065118
    18   Atom        0.105284     -0.189921      0.084637
    19   Atom       -0.062946     -0.021386      0.084331
    20   Atom        0.388493     -0.534990      0.146497
    21   Atom        0.430209     -0.577453      0.147244
    22   Atom        0.133834     -0.140387      0.006553
    23   Atom       -0.196957     -1.287416      1.484374
    24   Atom        0.070421     -1.104799      1.034378
    25   Atom       -0.496114      0.192282      0.303833
    26   Atom       -0.308042      0.369346     -0.061304
    27   Atom       -1.068675     -0.504619      1.573294
    28   Atom        0.045399      0.014821     -0.060220
    29   Atom        0.128881     -0.068310     -0.060572
    30   Atom        0.062141     -0.196050      0.133909
    31   Atom       -0.298358      0.148777      0.149581
    32   Atom        0.039845     -0.065430      0.025584
    33   Atom       -0.161765      0.150343      0.011422
    34   Atom        0.155352      0.077497     -0.232850
    35   Atom       -0.119649      0.046269      0.073379
    36   Atom       -0.103671      0.492365     -0.388694
    37   Atom        0.723948     -0.187760     -0.536188
    38   Atom        0.016582     -0.086336      0.069754
 --------------------------------------------------------
                        XY            XZ            YZ
 --------------------------------------------------------
     1   Atom        0.002503     -0.043092      0.000966
     2   Atom        0.003013      0.110785      0.003757
     3   Atom        0.002150     -0.036232     -0.000855
     4   Atom        0.008508     -0.011609     -0.007164
     5   Atom        0.003597      0.009006     -0.002126
     6   Atom        0.008519     -0.004259     -0.001448
     7   Atom       -0.002541     -0.203107     -0.001176
     8   Atom       -0.005489     -0.203026     -0.001767
     9   Atom       -0.007177      0.221752      0.004244
    10   Atom       -0.000126     -0.017976      0.001259
    11   Atom       -0.001985      0.046225     -0.023281
    12   Atom       -0.000198     -0.295226     -0.001452
    13   Atom        0.001546      0.043623     -0.021257
    14   Atom       -0.049520      0.022725     -0.001621
    15   Atom        0.012693     -0.034734      0.009775
    16   Atom       -0.192799      0.029716      0.064357
    17   Atom        0.196477      0.114030     -0.134847
    18   Atom       -0.159022     -0.076359      0.103402
    19   Atom        0.187039      0.129744     -0.111555
    20   Atom        0.194448      0.047810      0.037611
    21   Atom       -0.149179      0.749124     -0.078746
    22   Atom        0.174141      0.193246     -0.264195
    23   Atom        0.343165      0.952521      0.255095
    24   Atom       -0.072198      1.265606     -0.098676
    25   Atom       -0.235232     -0.096741      0.125146
    26   Atom        0.079359     -0.343276      0.135130
    27   Atom       -0.029314     -0.021387     -0.765821
    28   Atom       -0.026648      0.026822     -0.043156
    29   Atom        0.096608     -0.091383      0.223709
    30   Atom       -0.204531     -0.033687     -0.072661
    31   Atom        0.077865      0.038086     -0.009447
    32   Atom       -0.033945     -0.015954      0.004782
    33   Atom       -0.053339      0.227124      0.035913
    34   Atom       -0.034993     -0.062587     -0.173444
    35   Atom        0.169779     -0.158661      0.098953
    36   Atom        0.953190     -0.513840     -0.916591
    37   Atom       -0.496892     -0.337716      0.062018
    38   Atom       -0.281422     -0.163540     -0.151113
 --------------------------------------------------------


 ---------------------------------------------------------------------------------
              Nuclear Quadrupole Coupling Constant in Principal Axis System
 ---------------------------------------------------------------------------------

       Atom             a.u.   MegaHertz   Gauss  10(-4) cm-1        Axes

              Baa    -0.6533     3.137     1.119     1.047  0.9890 -0.0009 -0.1477
    11 N(14)  Bbb    -0.3371     1.619     0.578     0.540  0.1477  0.0176  0.9889
              Bcc     0.9903    -4.756    -1.697    -1.587 -0.0017  0.9998 -0.0175
 
              Baa    -0.6032     2.897     1.034     0.966  0.2377  0.9617 -0.1364
    21 N(14)  Bbb    -0.4645     2.231     0.796     0.744 -0.5953  0.2552  0.7619
              Bcc     1.0677    -5.128    -1.830    -1.710  0.7675 -0.0999  0.6332
 
              Baa    -0.6344     3.047     1.087     1.016  0.3090  0.2151  0.9264
    37 N(14)  Bbb    -0.3802     1.826     0.651     0.609  0.3090  0.8985 -0.3117
              Bcc     1.0146    -4.873    -1.739    -1.625  0.8995 -0.3826 -0.2112
 

 ---------------------------------------------------------------------------------

 No NMR shielding tensors so no spin-rotation constants.
 Leave Link  601 at Tue Oct 18 16:50:57 2016, MaxMem=    33554432 cpu:         0.7
 FitSet:  NAtFit=    38 NAtPot=    38 NAtFrz=     0 MDM=    42 TotChg=   0.00000
 Merz-Kollman atomic radii used.
 Atom Element Radius
    1     6    1.50
    2     6    1.50
    3     6    1.50
    4     6    1.50
    5     6    1.50
    6     6    1.50
    7     1    1.20
    8     1    1.20
    9     1    1.20
   10     1    1.20
   11     7    1.50
   12     1    1.20
   13     1    1.20
   14     6    1.50
   15     6    1.50
   16     1    1.20
   17     1    1.20
   18     6    1.50
   19     1    1.20
   20     6    1.50
   21     7    1.50
   22     1    1.20
   23     8    1.40
   24     8    1.40
   25     6    1.50
   26     6    1.50
   27     8    1.40
   28     6    1.50
   29     1    1.20
   30     1    1.20
   31     1    1.20
   32     6    1.50
   33     1    1.20
   34     1    1.20
   35     1    1.20
   36     8    1.40
   37     7    1.50
   38     1    1.20
 Generate VDW surfaces: Layer= 4 Dens= 6 Start= 1.400 Inc= 0.200

 **********************************************************************

            Electrostatic Properties Using The SCF Density

 **********************************************************************

       Atomic Center    1 is at   0.000000  0.000000  0.000000
       Atomic Center    2 is at   0.000000  0.000000  1.410668
       Atomic Center    3 is at   1.247212  0.000000  2.082011
       Atomic Center    4 is at   2.422984  0.018394  1.309444
       Atomic Center    5 is at   2.404960  0.026195 -0.061831
       Atomic Center    6 is at   1.168618  0.013121 -0.713941
       Atomic Center    7 is at  -0.942080 -0.005588 -0.509488
       Atomic Center    8 is at   3.371866  0.032840  1.801144
       Atomic Center    9 is at   3.316890  0.043134 -0.619216
       Atomic Center   10 is at   1.130153  0.015819 -1.784345
       Atomic Center   11 is at  -1.193825 -0.004705  2.061311
       Atomic Center   12 is at  -2.035148 -0.005892  1.545026
       Atomic Center   13 is at  -1.224403  0.026162  3.048576
       Atomic Center   14 is at   1.318698 -0.004652  3.548393
       Atomic Center   15 is at   2.670195 -0.056439  4.230802
       Atomic Center   16 is at   3.175069  0.886282  4.066156
       Atomic Center   17 is at   3.298617 -0.809571  3.778254
       Atomic Center   18 is at   2.558492 -0.313844  5.728941
       Atomic Center   19 is at   1.804654  0.313877  6.169524
       Atomic Center   20 is at   3.874811 -0.026267  6.419220
       Atomic Center   21 is at   2.179351 -1.691619  5.996182
       Atomic Center   22 is at   2.578533 -2.397687  5.428330
       Atomic Center   23 is at   4.932587  0.135979  5.885153
       Atomic Center   24 is at   0.308599  0.052669  4.249844
       Atomic Center   25 is at   3.962077 -0.880545  8.712322
       Atomic Center   26 is at   1.356929 -2.060769  7.013497
       Atomic Center   27 is at   4.317955 -1.981778  8.380766
       Atomic Center   28 is at   3.666791 -0.404118 10.084452
       Atomic Center   29 is at   3.968515 -1.149441 10.798900
       Atomic Center   30 is at   4.177374  0.526700 10.274443
       Atomic Center   31 is at   2.603546 -0.229087 10.163276
       Atomic Center   32 is at   1.047052 -3.524419  7.104151
       Atomic Center   33 is at   0.169402 -3.659661  7.711651
       Atomic Center   34 is at   0.881871 -3.962672  6.130711
       Atomic Center   35 is at   1.877000 -4.034653  7.575867
       Atomic Center   36 is at   0.934558 -1.248727  7.829928
       Atomic Center   37 is at   3.746900  0.108299  7.789818
       Atomic Center   38 is at   4.358367  0.765196  8.230947
      ESP Fit Center   39 is at   0.715327  1.931440  0.409690
      ESP Fit Center   40 is at   0.311888  2.035898  0.409690
      ESP Fit Center   41 is at  -0.104320  2.057006  0.409690
      ESP Fit Center   42 is at  -0.516256  1.993899  0.409690
      ESP Fit Center   43 is at  -0.907057  1.849162  0.409690
      ESP Fit Center   44 is at  -1.260724  1.628721  0.409690
      ESP Fit Center   45 is at  -1.562775  1.341599  0.409690
      ESP Fit Center   46 is at  -1.562775 -1.341599  0.409690
      ESP Fit Center   47 is at  -1.260724 -1.628721  0.409690
      ESP Fit Center   48 is at  -0.907057 -1.849162  0.409690
      ESP Fit Center   49 is at  -0.516256 -1.993899  0.409690
      ESP Fit Center   50 is at  -0.104320 -2.057006  0.409690
      ESP Fit Center   51 is at   0.311888 -2.035898  0.409690
      ESP Fit Center   52 is at   0.715327 -1.931440  0.409690
      ESP Fit Center   53 is at   0.409690  2.059649  0.000000
      ESP Fit Center   54 is at   0.000000  2.100000  0.000000
      ESP Fit Center   55 is at  -0.409690  2.059649  0.000000
      ESP Fit Center   56 is at  -0.803635  1.940147  0.000000
      ESP Fit Center   57 is at  -1.166697  1.746086  0.000000
      ESP Fit Center   58 is at  -1.166697 -1.746086  0.000000
      ESP Fit Center   59 is at  -0.803635 -1.940147  0.000000
      ESP Fit Center   60 is at  -0.409690 -2.059649  0.000000
      ESP Fit Center   61 is at   0.000000 -2.100000  0.000000
      ESP Fit Center   62 is at   0.409690 -2.059649  0.000000
      ESP Fit Center   63 is at   0.803635 -1.940147  0.000000
      ESP Fit Center   64 is at   0.311888  2.035898 -0.409690
      ESP Fit Center   65 is at  -0.104320  2.057006 -0.409690
      ESP Fit Center   66 is at  -0.516256  1.993899 -0.409690
      ESP Fit Center   67 is at  -0.907057  1.849162 -0.409690
      ESP Fit Center   68 is at  -0.907057 -1.849162 -0.409690
      ESP Fit Center   69 is at  -0.516256 -1.993899 -0.409690
      ESP Fit Center   70 is at  -0.104320 -2.057006 -0.409690
      ESP Fit Center   71 is at   0.311888 -2.035898 -0.409690
      ESP Fit Center   72 is at   0.105037  1.937302 -0.803635
      ESP Fit Center   73 is at  -0.313881  1.914589 -0.803635
      ESP Fit Center   74 is at  -0.718122  1.802351 -0.803635
      ESP Fit Center   75 is at  -0.718122 -1.802351 -0.803635
      ESP Fit Center   76 is at  -0.313881 -1.914589 -0.803635
      ESP Fit Center   77 is at   0.105037 -1.937302 -0.803635
      ESP Fit Center   78 is at  -0.210467  1.733355 -1.166697
      ESP Fit Center   79 is at  -0.619171  1.632619 -1.166697
      ESP Fit Center   80 is at  -0.619171 -1.632619 -1.166697
      ESP Fit Center   81 is at  -0.210467 -1.733355 -1.166697
      ESP Fit Center   82 is at  -0.211327  1.469810 -1.484924
      ESP Fit Center   83 is at  -0.616860  1.350735 -1.484924
      ESP Fit Center   84 is at  -0.616860 -1.350735 -1.484924
      ESP Fit Center   85 is at  -0.211327 -1.469810 -1.484924
      ESP Fit Center   86 is at  -0.319282  1.122160 -1.746086
      ESP Fit Center   87 is at  -0.319282 -1.122160 -1.746086
      ESP Fit Center   88 is at  -0.401818  0.695969 -1.940147
      ESP Fit Center   89 is at   0.105037  1.937302  2.214304
      ESP Fit Center   90 is at  -0.313881  1.914589  2.214304
      ESP Fit Center   91 is at  -0.313881 -1.914589  2.214304
      ESP Fit Center   92 is at   0.105037 -1.937302  2.214304
      ESP Fit Center   93 is at   0.311888  2.035898  1.820358
      ESP Fit Center   94 is at  -0.104320  2.057006  1.820358
      ESP Fit Center   95 is at  -0.516256  1.993899  1.820358
      ESP Fit Center   96 is at  -0.516256 -1.993899  1.820358
      ESP Fit Center   97 is at  -0.104320 -2.057006  1.820358
      ESP Fit Center   98 is at   0.311888 -2.035898  1.820358
      ESP Fit Center   99 is at   0.803635  1.940147  1.410668
      ESP Fit Center  100 is at   0.409690  2.059649  1.410668
      ESP Fit Center  101 is at   0.000000  2.100000  1.410668
      ESP Fit Center  102 is at  -0.409690  2.059649  1.410668
      ESP Fit Center  103 is at  -0.409690 -2.059649  1.410668
      ESP Fit Center  104 is at   0.000000 -2.100000  1.410668
      ESP Fit Center  105 is at   0.409690 -2.059649  1.410668
      ESP Fit Center  106 is at   0.803635 -1.940147  1.410668
      ESP Fit Center  107 is at   0.715327  1.931440  1.000979
      ESP Fit Center  108 is at   0.311888  2.035898  1.000979
      ESP Fit Center  109 is at  -0.104320  2.057006  1.000979
      ESP Fit Center  110 is at  -0.516256  1.993899  1.000979
      ESP Fit Center  111 is at  -0.907057  1.849162  1.000979
      ESP Fit Center  112 is at  -0.907057 -1.849162  1.000979
      ESP Fit Center  113 is at  -0.516256 -1.993899  1.000979
      ESP Fit Center  114 is at  -0.104320 -2.057006  1.000979
      ESP Fit Center  115 is at   0.311888 -2.035898  1.000979
      ESP Fit Center  116 is at   0.715327 -1.931440  1.000979
      ESP Fit Center  117 is at   1.962539  1.931440  2.491701
      ESP Fit Center  118 is at   1.559100  2.035898  2.491701
      ESP Fit Center  119 is at   1.142892  2.057006  2.491701
      ESP Fit Center  120 is at   0.730956  1.993899  2.491701
      ESP Fit Center  121 is at   0.340154  1.849162  2.491701
      ESP Fit Center  122 is at   0.340154 -1.849162  2.491701
      ESP Fit Center  123 is at   0.730956 -1.993899  2.491701
      ESP Fit Center  124 is at   1.142892 -2.057006  2.491701
      ESP Fit Center  125 is at   1.559100 -2.035898  2.491701
      ESP Fit Center  126 is at   1.962539 -1.931440  2.491701
      ESP Fit Center  127 is at   2.336692 -1.747909  2.491701
      ESP Fit Center  128 is at   2.050847  1.940147  2.082011
      ESP Fit Center  129 is at   1.656902  2.059649  2.082011
      ESP Fit Center  130 is at   1.247212  2.100000  2.082011
      ESP Fit Center  131 is at   0.837522  2.059649  2.082011
      ESP Fit Center  132 is at   0.443577  1.940147  2.082011
      ESP Fit Center  133 is at   0.443577 -1.940147  2.082011
      ESP Fit Center  134 is at   0.837522 -2.059649  2.082011
      ESP Fit Center  135 is at   1.247212 -2.100000  2.082011
      ESP Fit Center  136 is at   1.656902 -2.059649  2.082011
      ESP Fit Center  137 is at   2.050847 -1.940147  2.082011
      ESP Fit Center  138 is at   1.559100  2.035898  1.672321
      ESP Fit Center  139 is at   1.142892  2.057006  1.672321
      ESP Fit Center  140 is at   0.730956  1.993899  1.672321
      ESP Fit Center  141 is at   0.730956 -1.993899  1.672321
      ESP Fit Center  142 is at   1.142892 -2.057006  1.672321
      ESP Fit Center  143 is at   1.559100 -2.035898  1.672321
      ESP Fit Center  144 is at   1.352249  1.937302  1.278376
      ESP Fit Center  145 is at   0.933331  1.914589  1.278376
      ESP Fit Center  146 is at   0.933331 -1.914589  1.278376
      ESP Fit Center  147 is at   1.352249 -1.937302  1.278376
      ESP Fit Center  148 is at   3.042155  1.651013  2.476141
      ESP Fit Center  149 is at   2.633452  1.751749  2.476141
      ESP Fit Center  150 is at   2.633452 -1.714962  2.476141
      ESP Fit Center  151 is at   3.331765  1.732537  2.113079
      ESP Fit Center  152 is at   2.942028  1.887822  2.113079
      ESP Fit Center  153 is at   2.528022  1.955695  2.113079
      ESP Fit Center  154 is at   2.109103  1.932982  2.113079
      ESP Fit Center  155 is at   2.528022 -1.918908  2.113079
      ESP Fit Center  156 is at   2.942028 -1.851035  2.113079
      ESP Fit Center  157 is at   3.331765 -1.695750  2.113079
      ESP Fit Center  158 is at   3.512464  1.766303  1.719134
      ESP Fit Center  159 is at   3.138311  1.949834  1.719134
      ESP Fit Center  160 is at   2.734872  2.054291  1.719134
      ESP Fit Center  161 is at   2.318665  2.075399  1.719134
      ESP Fit Center  162 is at   1.906728  2.012293  1.719134
      ESP Fit Center  163 is at   1.906728 -1.975506  1.719134
      ESP Fit Center  164 is at   2.318665 -2.038612  1.719134
      ESP Fit Center  165 is at   2.734872 -2.017504  1.719134
      ESP Fit Center  166 is at   3.138311 -1.913047  1.719134
      ESP Fit Center  167 is at   3.512464 -1.729516  1.719134
      ESP Fit Center  168 is at   3.589682  1.764480  1.309444
      ESP Fit Center  169 is at   3.226619  1.958541  1.309444
      ESP Fit Center  170 is at   2.832674  2.078043  1.309444
      ESP Fit Center  171 is at   2.422984  2.118394  1.309444
      ESP Fit Center  172 is at   2.013294  2.078043  1.309444
      ESP Fit Center  173 is at   1.619349  1.958541  1.309444
      ESP Fit Center  174 is at   1.619349 -1.921753  1.309444
      ESP Fit Center  175 is at   2.013294 -2.041256  1.309444
      ESP Fit Center  176 is at   2.422984 -2.081606  1.309444
      ESP Fit Center  177 is at   2.832674 -2.041256  1.309444
      ESP Fit Center  178 is at   3.226619 -1.921753  1.309444
      ESP Fit Center  179 is at   3.589682 -1.727693  1.309444
      ESP Fit Center  180 is at   3.842014  1.511212  0.899754
      ESP Fit Center  181 is at   3.512464  1.766303  0.899754
      ESP Fit Center  182 is at   3.138311  1.949834  0.899754
      ESP Fit Center  183 is at   2.734872  2.054291  0.899754
      ESP Fit Center  184 is at   2.318665  2.075399  0.899754
      ESP Fit Center  185 is at   1.906728  2.012293  0.899754
      ESP Fit Center  186 is at   1.515927  1.867556  0.899754
      ESP Fit Center  187 is at   1.515927 -1.830769  0.899754
      ESP Fit Center  188 is at   1.906728 -1.975506  0.899754
      ESP Fit Center  189 is at   2.318665 -2.038612  0.899754
      ESP Fit Center  190 is at   2.734872 -2.017504  0.899754
      ESP Fit Center  191 is at   3.138311 -1.913047  0.899754
      ESP Fit Center  192 is at   3.512464 -1.729516  0.899754
      ESP Fit Center  193 is at   3.842014 -1.474425  0.899754
      ESP Fit Center  194 is at   4.095445  1.202807  0.347859
      ESP Fit Center  195 is at   3.823991  1.519014  0.347859
      ESP Fit Center  196 is at   3.494441  1.774105  0.347859
[...]
 9050 Fit       0.011515
 9051 Fit       0.012470
 9052 Fit       0.013170
 9053 Fit       0.013566
 9054 Fit       0.013629
 9055 Fit       0.013347
 9056 Fit       0.012727
 9057 Fit       0.011802
 9058 Fit       0.010632
 9059 Fit       0.009313
 9060 Fit       0.007991
 9061 Fit       0.011079
 9062 Fit       0.012417
 9063 Fit       0.013532
 9064 Fit       0.014369
 9065 Fit       0.014886
 9066 Fit       0.015050
 9067 Fit       0.014844
 9068 Fit       0.014263
 9069 Fit       0.013326
 9070 Fit       0.012073
 9071 Fit       0.010573
 9072 Fit       0.008938
 9073 Fit       0.012091
 9074 Fit       0.013595
 9075 Fit       0.014850
 9076 Fit       0.015816
 9077 Fit       0.016453
 9078 Fit       0.016724
 9079 Fit       0.016605
 9080 Fit       0.016084
 9081 Fit       0.015164
 9082 Fit       0.013869
 9083 Fit       0.012246
 9084 Fit       0.010374
 9085 Fit       0.008373
 9086 Fit       0.013561
 9087 Fit       0.015241
 9088 Fit       0.016649
 9089 Fit       0.017749
 9090 Fit       0.018494
 9091 Fit       0.018839
 9092 Fit       0.018749
 9093 Fit       0.018203
 9094 Fit       0.017195
 9095 Fit       0.015743
 9096 Fit       0.013883
 9097 Fit       0.011679
 9098 Fit       0.009232
 9099 Fit       0.015727
 9100 Fit       0.017656
 9101 Fit       0.019282
 9102 Fit       0.020549
 9103 Fit       0.021385
 9104 Fit       0.021717
 9105 Fit       0.021489
 9106 Fit       0.020668
 9107 Fit       0.019249
 9108 Fit       0.017252
 9109 Fit       0.014727
 9110 Fit       0.011750
 9111 Fit       0.008445
 9112 Fit       0.014564
 9113 Fit       0.001590
 9114 Fit       0.002134
 9115 Fit       0.000867
 9116 Fit      -0.000080
 9117 Fit      -0.000565
 9118 Fit       0.002522
 9119 Fit       0.000967
 9120 Fit      -0.000443
 9121 Fit      -0.001631
 9122 Fit      -0.002477
 9123 Fit      -0.002862
 9124 Fit      -0.002718
 9125 Fit       0.002312
 9126 Fit       0.000524
 9127 Fit      -0.001177
 9128 Fit      -0.002761
 9129 Fit      -0.004135
 9130 Fit      -0.005161
 9131 Fit      -0.005701
 9132 Fit      -0.005677
 9133 Fit      -0.005104
 9134 Fit       0.001959
 9135 Fit      -0.000062
 9136 Fit      -0.002026
 9137 Fit      -0.003953
 9138 Fit      -0.005795
 9139 Fit      -0.007440
 9140 Fit      -0.008723
 9141 Fit      -0.009469
 9142 Fit      -0.009554
 9143 Fit      -0.008979
 9144 Fit      -0.007879
 9145 Fit       0.002329
 9146 Fit      -0.000115
 9147 Fit      -0.002478
 9148 Fit      -0.004851
 9149 Fit      -0.007253
 9150 Fit      -0.009625
 9151 Fit      -0.011819
 9152 Fit      -0.013604
 9153 Fit      -0.014701
 9154 Fit      -0.014876
 9155 Fit      -0.014076
 9156 Fit      -0.012500
 9157 Fit      -0.000090
 9158 Fit      -0.002874
 9159 Fit      -0.005668
 9160 Fit      -0.008575
 9161 Fit      -0.011621
 9162 Fit      -0.014742
 9163 Fit      -0.017759
 9164 Fit      -0.020359
 9165 Fit      -0.022113
 9166 Fit      -0.019163
 9167 Fit      -0.016134
 9168 Fit      -0.001063
 9169 Fit      -0.004358
 9170 Fit      -0.007680
 9171 Fit      -0.011213
 9172 Fit      -0.015062
 9173 Fit      -0.019239
 9174 Fit      -0.023630
 9175 Fit      -0.004852
 9176 Fit      -0.008855
 9177 Fit      -0.013128
 9178 Fit      -0.017944
 9179 Fit      -0.023473
 9180 Fit      -0.006865
 9181 Fit      -0.011654
 9182 Fit      -0.016888
 9183 Fit      -0.023094
 9184 Fit      -0.011601
 9185 Fit      -0.011509
 9186 Fit      -0.014872
 9187 Fit      -0.015534
 9188 Fit      -0.011614
 9189 Fit      -0.008640
 9190 Fit      -0.008867
 9191 Fit      -0.011820
 9192 Fit      -0.014710
 9193 Fit      -0.005831
 9194 Fit      -0.006818
 9195 Fit      -0.008977
 9196 Fit      -0.015461
 9197 Fit      -0.003611
 9198 Fit      -0.004024
 9199 Fit      -0.001949
 9200 Fit      -0.000442
 9201 Fit      -0.000637
 9202 Fit       0.000862
 9203 Fit       0.000695
 9204 Fit       0.000595
 9205 Fit       0.001731
 9206 Fit       0.001627
 9207 Fit       0.001616
 9208 Fit       0.002472
 9209 Fit       0.002410
 9210 Fit       0.002443
 9211 Fit       0.003164
 9212 Fit       0.003084
 9213 Fit       0.003074
 9214 Fit       0.003134
 9215 Fit       0.003250
 9216 Fit       0.003617
 9217 Fit       0.003625
 9218 Fit       0.003663
 9219 Fit       0.003736
 9220 Fit       0.003845
 9221 Fit       0.003978
 9222 Fit       0.003891
 9223 Fit       0.004035
 9224 Fit       0.004157
 9225 Fit       0.004272
 9226 Fit       0.004388
 9227 Fit       0.004508
 9228 Fit       0.004630
 9229 Fit       0.003878
 9230 Fit       0.004250
 9231 Fit       0.004541
 9232 Fit       0.004775
 9233 Fit       0.004964
 9234 Fit       0.005118
 9235 Fit       0.005248
 9236 Fit       0.005359
 9237 Fit       0.005438
 9238 Fit      -0.011328
 9239 Fit      -0.007340
 9240 Fit      -0.004202
 9241 Fit       0.001622
 9242 Fit       0.002735
 9243 Fit       0.003588
 9244 Fit       0.004254
 9245 Fit       0.004784
 9246 Fit       0.005209
 9247 Fit       0.005545
 9248 Fit       0.005804
 9249 Fit       0.005997
 9250 Fit       0.006142
 9251 Fit       0.006254
 9252 Fit       0.006336
 9253 Fit       0.006368
 9254 Fit      -0.010296
 9255 Fit      -0.006557
 9256 Fit      -0.003615
 9257 Fit      -0.001282
 9258 Fit       0.000579
 9259 Fit       0.002071
 9260 Fit       0.003276
 9261 Fit       0.004260
 9262 Fit       0.005070
 9263 Fit       0.007335
 9264 Fit       0.007463
 9265 Fit       0.007583
 9266 Fit       0.007693
 9267 Fit       0.007766
 9268 Fit      -0.007581
 9269 Fit      -0.004261
 9270 Fit      -0.001650
 9271 Fit       0.000456
 9272 Fit       0.002191
 9273 Fit       0.009293
 9274 Fit       0.009685
 9275 Fit       0.010250
 9276 Fit       0.011080
 9277 Fit       0.012352
 9278 Fit      -0.009015
 9279 Fit      -0.005026
 9280 Fit      -0.001986
 9281 Fit       0.000441
 9282 Fit       0.014232
 9283 Fit       0.016773
 9284 Fit      -0.008728
 9285 Fit      -0.004268
 9286 Fit      -0.009827
 9287 Fit      -0.010272
 9288 Fit      -0.013940
 9289 Fit      -0.013294
 9290 Fit      -0.009215
 9291 Fit      -0.006694
 9292 Fit      -0.007171
 9293 Fit      -0.017793
 9294 Fit      -0.012827
 9295 Fit      -0.008493
 9296 Fit      -0.005633
 9297 Fit      -0.004246
 9298 Fit      -0.004115
 9299 Fit      -0.005081
 9300 Fit      -0.017132
 9301 Fit      -0.011755
 9302 Fit      -0.007717
 9303 Fit      -0.004932
 9304 Fit      -0.003196
 9305 Fit      -0.002308
 9306 Fit      -0.002099
 9307 Fit      -0.002450
 9308 Fit      -0.019325
 9309 Fit      -0.013215
 9310 Fit      -0.008697
 9311 Fit      -0.005455
 9312 Fit      -0.003214
 9313 Fit      -0.001761
 9314 Fit      -0.000929
 9315 Fit      -0.000586
 9316 Fit      -0.000624
 9317 Fit      -0.000956
 9318 Fit      -0.018189
 9319 Fit      -0.012209
 9320 Fit      -0.007876
 9321 Fit      -0.004753
 9322 Fit      -0.002542
 9323 Fit      -0.001033
 9324 Fit      -0.000074
 9325 Fit       0.000456
 9326 Fit       0.000655
 9327 Fit       0.000614
 9328 Fit      -0.016516
 9329 Fit      -0.011047
 9330 Fit      -0.007062
 9331 Fit      -0.004146
 9332 Fit      -0.002027
 9333 Fit      -0.000520
 9334 Fit       0.000506
 9335 Fit       0.001155
 9336 Fit       0.001510
 9337 Fit       0.001650
 9338 Fit       0.001652
 9339 Fit      -0.022920
 9340 Fit      -0.015507
 9341 Fit      -0.010228
 9342 Fit      -0.006385
 9343 Fit      -0.003559
 9344 Fit      -0.001488
 9345 Fit       0.000007
 9346 Fit       0.001054
 9347 Fit       0.001750
 9348 Fit       0.002177
 9349 Fit       0.002409
 9350 Fit       0.002518
 9351 Fit      -0.020872
 9352 Fit      -0.014149
 9353 Fit      -0.009303
 9354 Fit      -0.005731
 9355 Fit      -0.003072
 9356 Fit      -0.001092
 9357 Fit       0.000368
 9358 Fit       0.001422
 9359 Fit       0.002160
 9360 Fit       0.002657
 9361 Fit       0.002979
 9362 Fit      -0.015716
 9363 Fit      -0.010528
 9364 Fit      -0.006685
 9365 Fit      -0.003797
 9366 Fit      -0.001616
 9367 Fit       0.000027
 9368 Fit       0.001253
 9369 Fit       0.002155
 9370 Fit       0.002810
 9371 Fit       0.003284
 9372 Fit      -0.017850
 9373 Fit      -0.012100
 9374 Fit      -0.007830
 9375 Fit      -0.004615
 9376 Fit      -0.002176
 9377 Fit      -0.000323
 9378 Fit       0.001083
 9379 Fit       0.002146
 9380 Fit       0.002952
 9381 Fit       0.003575
 9382 Fit      -0.011238
 9383 Fit      -0.007175
 9384 Fit      -0.004070
 9385 Fit      -0.001691
 9386 Fit       0.000138
 9387 Fit       0.001549
 9388 Fit       0.002650
 9389 Fit      -0.003390
 9390 Fit      -0.001123
 9391 Fit       0.000668
 9392 Fit       0.005534
 9393 Fit       0.006007
 9394 Fit       0.006399
 9395 Fit       0.006733
 9396 Fit       0.007032
 9397 Fit       0.003117
 9398 Fit       0.004210
 9399 Fit       0.005090
 9400 Fit       0.005805
 9401 Fit       0.006391
 9402 Fit       0.006878
 9403 Fit       0.007293
 9404 Fit       0.007665
 9405 Fit       0.008029
 9406 Fit       0.008430
 9407 Fit       0.008928
 9408 Fit       0.000673
 9409 Fit       0.002379
 9410 Fit       0.003760
 9411 Fit       0.004881
 9412 Fit       0.005796
 9413 Fit       0.006550
 9414 Fit       0.007179
 9415 Fit       0.007717
 9416 Fit       0.008198
 9417 Fit       0.008666
 9418 Fit       0.009174
 9419 Fit       0.009803
 9420 Fit       0.010671
 9421 Fit       0.011971
 9422 Fit      -0.000692
 9423 Fit       0.001438
 9424 Fit       0.003138
 9425 Fit       0.004515
 9426 Fit       0.005641
 9427 Fit       0.006573
 9428 Fit       0.007355
 9429 Fit       0.008026
 9430 Fit       0.008629
 9431 Fit       0.009212
 9432 Fit       0.009836
 9433 Fit       0.010593
 9434 Fit       0.011617
 9435 Fit       0.013129
 9436 Fit       0.015497
 9437 Fit       0.019382
 9438 Fit      -0.002700
 9439 Fit       0.000077
 9440 Fit       0.002283
 9441 Fit       0.004042
 9442 Fit       0.005463
 9443 Fit       0.006627
 9444 Fit       0.007599
 9445 Fit       0.008437
 9446 Fit       0.009200
 9447 Fit       0.009957
 9448 Fit       0.010803
 9449 Fit       0.011879
 9450 Fit       0.013406
 9451 Fit       0.015742
 9452 Fit       0.019495
 9453 Fit      -0.000892
 9454 Fit       0.001326
 9455 Fit       0.003362
 9456 Fit       0.005081
 9457 Fit       0.006506
 9458 Fit       0.007699
 9459 Fit       0.008730
 9460 Fit       0.009677
 9461 Fit       0.010640
 9462 Fit       0.011753
 9463 Fit       0.013222
 9464 Fit       0.015361
 9465 Fit       0.018657
 9466 Fit       0.002764
 9467 Fit       0.004014
 9468 Fit       0.005608
 9469 Fit       0.007118
 9470 Fit       0.008457
 9471 Fit       0.009677
 9472 Fit       0.010896
 9473 Fit       0.012296
 9474 Fit       0.014153
 9475 Fit       0.016858
 9476 Fit       0.020841
 9477 Fit       0.007461
 9478 Fit       0.006486
 9479 Fit       0.007391
 9480 Fit       0.008840
 9481 Fit       0.010389
 9482 Fit       0.012110
 9483 Fit       0.014330
 9484 Fit       0.017406
 9485 Fit       0.016453
 9486 Fit       0.014951
 9487 Fit       0.010639
 9488 Fit       0.009732
 9489 Fit       0.011325
 9490 Fit       0.013905
 9491 Fit       0.012727
 9492 Fit      -0.008599
 9493 Fit      -0.010132
 9494 Fit      -0.011470
 9495 Fit      -0.006140
 9496 Fit      -0.007212
 9497 Fit      -0.012997
 9498 Fit      -0.014866
 9499 Fit      -0.004016
 9500 Fit      -0.004353
 9501 Fit      -0.006068
 9502 Fit      -0.009211
 9503 Fit      -0.002318
 9504 Fit      -0.003183
 9505 Fit      -0.005002
 9506 Fit      -0.008029
 9507 Fit      -0.012391
 9508 Fit      -0.000628
 9509 Fit      -0.001000
 9510 Fit      -0.001908
 9511 Fit      -0.003575
 9512 Fit      -0.006285
 9513 Fit      -0.010391
 9514 Fit      -0.016261
 9515 Fit       0.000637
 9516 Fit       0.000263
 9517 Fit      -0.000514
 9518 Fit      -0.001891
 9519 Fit      -0.004117
 9520 Fit      -0.007537
 9521 Fit      -0.012653
 9522 Fit       0.001710
 9523 Fit       0.001363
 9524 Fit       0.000713
 9525 Fit      -0.000394
 9526 Fit      -0.002150
 9527 Fit      -0.004819
 9528 Fit      -0.008788
 9529 Fit      -0.014671
 9530 Fit       0.002531
 9531 Fit       0.002098
 9532 Fit       0.001349
 9533 Fit       0.000130
 9534 Fit      -0.001751
 9535 Fit      -0.004570
 9536 Fit      -0.008745
 9537 Fit      -0.014948
 9538 Fit       0.003250
 9539 Fit       0.002751
 9540 Fit       0.001938
 9541 Fit       0.000671
 9542 Fit      -0.001232
 9543 Fit      -0.004029
 9544 Fit      -0.008107
 9545 Fit      -0.014080
 9546 Fit       0.004042
 9547 Fit       0.003545
 9548 Fit       0.002765
 9549 Fit       0.001580
 9550 Fit      -0.000172
 9551 Fit      -0.002713
 9552 Fit      -0.006363
 9553 Fit      -0.011609
 9554 Fit       0.004659
 9555 Fit       0.004027
 9556 Fit       0.003072
 9557 Fit       0.001656
 9558 Fit      -0.000400
 9559 Fit      -0.003342
 9560 Fit      -0.007516
 9561 Fit       0.005509
 9562 Fit       0.004824
 9563 Fit       0.003819
 9564 Fit       0.002361
 9565 Fit       0.000289
 9566 Fit      -0.002595
 9567 Fit      -0.006515
 9568 Fit       0.006084
 9569 Fit       0.005247
 9570 Fit       0.004118
 9571 Fit       0.002661
 9572 Fit       0.000925
 9573 Fit       0.008197
 9574 Fit       0.008167
 9575 Fit      -0.024121
 9576 Fit      -0.025429
 9577 Fit      -0.024760
 9578 Fit      -0.022865
 9579 Fit      -0.020320
 9580 Fit      -0.026053
 9581 Fit      -0.027718
 9582 Fit      -0.027971
 9583 Fit      -0.027087
 9584 Fit      -0.025392
 9585 Fit      -0.023325
 9586 Fit      -0.021279
 9587 Fit      -0.019325
 9588 Fit      -0.025191
 9589 Fit      -0.027948
 9590 Fit      -0.029495
 9591 Fit      -0.030054
 9592 Fit      -0.029731
 9593 Fit      -0.028605
 9594 Fit      -0.026811
 9595 Fit      -0.024612
 9596 Fit      -0.022394
 9597 Fit      -0.020513
 9598 Fit      -0.019095
 9599 Fit      -0.018031
 9600 Fit      -0.025620
 9601 Fit      -0.028438
 9602 Fit      -0.030286
 9603 Fit      -0.031335
 9604 Fit      -0.031666
 9605 Fit      -0.031303
 9606 Fit      -0.030246
 9607 Fit      -0.028509
 9608 Fit      -0.026172
 9609 Fit      -0.023457
 9610 Fit      -0.027265
 9611 Fit      -0.029666
 9612 Fit      -0.031360
 9613 Fit      -0.032424
 9614 Fit      -0.032898
 9615 Fit      -0.032788
 9616 Fit      -0.032073
 9617 Fit      -0.030714
 9618 Fit      -0.028667
 9619 Fit      -0.025920
 9620 Fit      -0.026195
 9621 Fit      -0.028699
 9622 Fit      -0.030726
 9623 Fit      -0.032255
 9624 Fit      -0.033286
 9625 Fit      -0.033826
 9626 Fit      -0.033873
 9627 Fit      -0.033411
 9628 Fit      -0.032401
 9629 Fit      -0.030781
 9630 Fit      -0.028468
 9631 Fit      -0.025369
 9632 Fit      -0.026144
 9633 Fit      -0.028258
 9634 Fit      -0.030290
 9635 Fit      -0.032024
 9636 Fit      -0.033353
 9637 Fit      -0.034236
 9638 Fit      -0.034660
 9639 Fit      -0.034624
 9640 Fit      -0.034115
 9641 Fit      -0.033102
 9642 Fit      -0.031526
 9643 Fit      -0.029299
 9644 Fit      -0.026286
 9645 Fit      -0.026509
 9646 Fit      -0.028370
 9647 Fit      -0.030463
 9648 Fit      -0.032359
 9649 Fit      -0.033846
 9650 Fit      -0.034840
 9651 Fit      -0.035320
 9652 Fit      -0.035294
 9653 Fit      -0.034770
 9654 Fit      -0.033734
 9655 Fit      -0.032145
 9656 Fit      -0.029921
 9657 Fit      -0.026927
 9658 Fit      -0.027236
 9659 Fit      -0.029817
 9660 Fit      -0.032196
 9661 Fit      -0.034071
 9662 Fit      -0.035326
 9663 Fit      -0.035947
 9664 Fit      -0.035968
 9665 Fit      -0.035430
 9666 Fit      -0.034358
 9667 Fit      -0.032743
 9668 Fit      -0.030532
 9669 Fit      -0.027624
 9670 Fit      -0.023842
 9671 Fit      -0.032325
 9672 Fit      -0.034733
 9673 Fit      -0.036217
 9674 Fit      -0.036831
 9675 Fit      -0.036676
 9676 Fit      -0.035855
 9677 Fit      -0.034439
 9678 Fit      -0.032452
 9679 Fit      -0.029862
 9680 Fit      -0.026580
 9681 Fit      -0.022454
 9682 Fit      -0.033749
 9683 Fit      -0.036560
 9684 Fit      -0.037946
 9685 Fit      -0.038134
 9686 Fit      -0.037360
 9687 Fit      -0.035822
 9688 Fit      -0.033643
 9689 Fit      -0.030864
 9690 Fit      -0.027452
 9691 Fit      -0.023317
 9692 Fit      -0.039732
 9693 Fit      -0.040645
 9694 Fit      -0.040014
 9695 Fit      -0.038274
 9696 Fit      -0.035742
 9697 Fit      -0.032594
 9698 Fit      -0.028880
 9699 Fit      -0.024562
 9700 Fit      -0.036146
 9701 Fit      -0.031581
 9702 Fit       0.012363
 9703 Fit       0.007270
 9704 Fit       0.002234
 9705 Fit      -0.002747
 9706 Fit      -0.007788
 9707 Fit       0.009755
 9708 Fit       0.005095
 9709 Fit       0.000363
 9710 Fit      -0.004493
 9711 Fit      -0.009636
 9712 Fit      -0.015389
 9713 Fit      -0.022307
 9714 Fit       0.010740
 9715 Fit       0.006649
 9716 Fit       0.002380
 9717 Fit      -0.002073
 9718 Fit      -0.006806
 9719 Fit      -0.012045
 9720 Fit      -0.018212
 9721 Fit      -0.026047
 9722 Fit       0.012988
 9723 Fit       0.009751
 9724 Fit       0.006163
 9725 Fit       0.002296
 9726 Fit      -0.001847
 9727 Fit      -0.006351
 9728 Fit      -0.011441
 9729 Fit      -0.017574
 9730 Fit       0.011753
 9731 Fit       0.009310
 9732 Fit       0.006403
 9733 Fit       0.003120
 9734 Fit      -0.000505
 9735 Fit      -0.004510
 9736 Fit       0.011702
 9737 Fit       0.010952
 9738 Fit       0.009475
 9739 Fit       0.007414
 9740 Fit       0.004885
 9741 Fit       0.001972
 9742 Fit       0.009770
 9743 Fit       0.008303
 9744 Fit       0.006317
 9745 Fit       0.019937
 9746 Fit       0.021117
 9747 Fit       0.022154
 9748 Fit       0.022952
 9749 Fit       0.023419
 9750 Fit       0.023472
 9751 Fit       0.023030
 9752 Fit       0.022018
 9753 Fit       0.020361
 9754 Fit       0.017989
 9755 Fit       0.015661
 9756 Fit       0.017220
 9757 Fit       0.018613
 9758 Fit       0.019768
 9759 Fit       0.020604
 9760 Fit       0.021042
 9761 Fit       0.021008
 9762 Fit       0.020425
 9763 Fit       0.019218
 9764 Fit       0.017301
 9765 Fit       0.014581
 9766 Fit       0.010668
 9767 Fit       0.012684
 9768 Fit       0.014523
 9769 Fit       0.016121
 9770 Fit       0.017405
 9771 Fit       0.018303
 9772 Fit       0.018747
 9773 Fit       0.018672
 9774 Fit       0.018008
 9775 Fit       0.016676
 9776 Fit       0.014578
 9777 Fit       0.004603
 9778 Fit       0.007229
 9779 Fit       0.009677
 9780 Fit       0.011868
 9781 Fit       0.013718
 9782 Fit       0.015153
 9783 Fit       0.016113
 9784 Fit       0.016540
 9785 Fit       0.016375
 9786 Fit       0.015546
 9787 Fit       0.013963
 9788 Fit       0.001838
 9789 Fit       0.000495
 9790 Fit       0.003937
 9791 Fit       0.007044
 9792 Fit       0.009699
 9793 Fit       0.011825
 9794 Fit       0.013364
 9795 Fit       0.014272
 9796 Fit       0.014497
 9797 Fit       0.013974
 9798 Fit       0.005290
 9799 Fit       0.008385
 9800 Fit       0.010697
 9801 Fit       0.012216
 9802 Fit       0.012918
 9803 Fit       0.008126
 -----------------------------------------------------------------
 Leave Link  602 at Tue Oct 18 16:51:03 2016, MaxMem=    33554432 cpu:         6.8
 Recover reactant geometry.  Energy = -0.10028775D+04
 ----------------------------------------------------------------------
 1 2 1.5 6 2.0 7 1.0 2 3 1.5 11 1.5 3 4 1.5 14 1.0 4 5 2.0 8 1.0 5 6 1.
 5 9 1.0 6 10 1.0 7 8 9 10 11 12 1.0 13 1.0 12 13 14 15 1.0 24 2.0 15 1
 6 1.0 17 1.0 18 1.0 16 17 18 19 1.0 20 1.0 21 1.0 19 20 23 2.0 37 1.0 
 21 22 1.0 26 1.5 22 23 24 25 27 2.0 28 1.0 37 1.0 26 32 1.0 36 2.0 27 
 28 29 1.0 30 1.0 31 1.0 29 30 31 32 33 1.0 34 1.0 35 1.0 33 34 35 36 3
 7 38 1.0 38
 ----------------------------------------------------------------------
 Charge and Multiplicity card seems defective:
 Wanted an integer as input.
                                                                                 
 ?
 Error termination via Lnk1e in /apps/gaussian/g09/em64t-sse4_2/l101.exe at Tue Oct 18 16:51:04 2016.
 Job cpu time:       0 days  0 hours  6 minutes 28.5 seconds.
 File lengths (MBytes):  RWF=     67 Int=      0 D2E=      0 Chk=      7 Scr=      1
