 Entering Gaussian System, Link 0=g09
 Initial command:
 /apps/gaussian/g09/amd-sse4a/l1.exe "/scratch/lfs/aravinda1879/peg/Gau-5637.inp" -scrdir="/scratch/lfs/aravinda1879/peg/"
 Entering Link 1 = /apps/gaussian/g09/amd-sse4a/l1.exe PID=      5638.
  
 Copyright (c) 1988,1990,1992,1993,1995,1998,2003,2009,2013,
            Gaussian, Inc.  All Rights Reserved.
  
 This is part of the Gaussian(R) 09 program.  It is based on
 the Gaussian(R) 03 system (copyright 2003, Gaussian, Inc.),
 the Gaussian(R) 98 system (copyright 1998, Gaussian, Inc.),
 the Gaussian(R) 94 system (copyright 1995, Gaussian, Inc.),
 the Gaussian 92(TM) system (copyright 1992, Gaussian, Inc.),
 the Gaussian 90(TM) system (copyright 1990, Gaussian, Inc.),
 the Gaussian 88(TM) system (copyright 1988, Gaussian, Inc.),
 the Gaussian 86(TM) system (copyright 1986, Carnegie Mellon
 University), and the Gaussian 82(TM) system (copyright 1983,
 Carnegie Mellon University). Gaussian is a federally registered
 trademark of Gaussian, Inc.
  
 This software contains proprietary and confidential information,
 including trade secrets, belonging to Gaussian, Inc.
  
 This software is provided under written license and may be
 used, copied, transmitted, or stored only in accord with that
 written license.
  
 The following legend is applicable only to US Government
 contracts under FAR:
  
                    RESTRICTED RIGHTS LEGEND
  
 Use, reproduction and disclosure by the US Government is
 subject to restrictions as set forth in subparagraphs (a)
 and (c) of the Commercial Computer Software - Restricted
 Rights clause in FAR 52.227-19.
  
 Gaussian, Inc.
 340 Quinnipiac St., Bldg. 40, Wallingford CT 06492
  
  
 ---------------------------------------------------------------
 Warning -- This program may not be used in any manner that
 competes with the business of Gaussian, Inc. or will provide
 assistance to any competitor of Gaussian, Inc.  The licensee
 of this program is prohibited from giving any competitor of
 Gaussian, Inc. access to this program.  By using this program,
 the user acknowledges that Gaussian, Inc. is engaged in the
 business of creating and licensing software in the field of
 computational chemistry and represents and warrants to the
 licensee that it is not a competitor of Gaussian, Inc. and that
 it will not use this program in any manner prohibited above.
 ---------------------------------------------------------------
  

 Cite this work as:
 Gaussian 09, Revision D.01,
 M. J. Frisch, G. W. Trucks, H. B. Schlegel, G. E. Scuseria, 
 M. A. Robb, J. R. Cheeseman, G. Scalmani, V. Barone, B. Mennucci, 
 G. A. Petersson, H. Nakatsuji, M. Caricato, X. Li, H. P. Hratchian, 
 A. F. Izmaylov, J. Bloino, G. Zheng, J. L. Sonnenberg, M. Hada, 
 M. Ehara, K. Toyota, R. Fukuda, J. Hasegawa, M. Ishida, T. Nakajima, 
 Y. Honda, O. Kitao, H. Nakai, T. Vreven, J. A. Montgomery, Jr., 
 J. E. Peralta, F. Ogliaro, M. Bearpark, J. J. Heyd, E. Brothers, 
 K. N. Kudin, V. N. Staroverov, T. Keith, R. Kobayashi, J. Normand, 
 K. Raghavachari, A. Rendell, J. C. Burant, S. S. Iyengar, J. Tomasi, 
 M. Cossi, N. Rega, J. M. Millam, M. Klene, J. E. Knox, J. B. Cross, 
 V. Bakken, C. Adamo, J. Jaramillo, R. Gomperts, R. E. Stratmann, 
 O. Yazyev, A. J. Austin, R. Cammi, C. Pomelli, J. W. Ochterski, 
 R. L. Martin, K. Morokuma, V. G. Zakrzewski, G. A. Voth, 
 P. Salvador, J. J. Dannenberg, S. Dapprich, A. D. Daniels, 
 O. Farkas, J. B. Foresman, J. V. Ortiz, J. Cioslowski, 
 and D. J. Fox, Gaussian, Inc., Wallingford CT, 2013.
 
 ******************************************
 Gaussian 09:  AS64L-G09RevD.01 24-Apr-2013
                 5-Jan-2016 
 ******************************************
 %chk=g_0.chk
 --------------------------------------
 # opt freq hf/6-31+g geom=connectivity
 --------------------------------------
 1/18=20,19=15,38=1,57=2/1,3;
 2/9=110,12=2,17=6,18=5,40=1/2;
 3/5=1,6=6,7=10,11=9,16=1,25=1,30=1,71=1/1,2,3;
 4//1;
 5/5=2,38=5/2;
 6/7=2,8=2,9=2,10=2,28=1/1;
 7//1,2,3,16;
 1/18=20,19=15/3(2);
 2/9=110/2;
 99//99;
 2/9=110/2;
 3/5=1,6=6,7=10,11=9,16=1,25=1,30=1,71=1/1,2,3;
 4/5=5,16=3,69=1/1;
 5/5=2,38=5/2;
 7//1,2,3,16;
 1/18=20,19=15/3(-5);
 2/9=110/2;
 6/7=2,8=2,9=2,10=2,19=2,28=1/1;
 99/9=1/99;
 -------------------
 Title Card Required
 -------------------
 Symbolic Z-matrix:
 Charge =  0 Multiplicity = 1
 O
 C                    1    B1
 C                    2    B2       1    A1
 O                    3    B3       2    A2       1    D1       0
 C                    1    B4       2    A3       3    D2       0
 C                    4    B5       3    A4       2    D3       0
 H                    2    B6       1    A5       5    D4       0
 H                    2    B7       1    A6       5    D5       0
 H                    3    B8       2    A7       1    D6       0
 H                    3    B9       2    A8       1    D7       0
 H                    5    B10      1    A9       2    D8       0
 H                    5    B11      1    A10      2    D9       0
 H                    5    B12      1    A11      2    D10      0
 H                    6    B13      4    A12      3    D11      0
 H                    6    B14      4    A13      3    D12      0
 H                    6    B15      4    A14      3    D13      0
       Variables:
  B1                    1.41143                  
  B2                    1.53234                  
  B3                    1.41184                  
  B4                    1.4087                   
  B5                    1.40812                  
  B6                    1.07                     
  B7                    1.07                     
  B8                    1.07                     
  B9                    1.07                     
  B10                   1.07                     
  B11                   1.07                     
  B12                   1.07                     
  B13                   1.07                     
  B14                   1.07                     
  B15                   1.07                     
  A1                  107.95185                  
  A2                  107.9358                   
  A3                  112.99576                  
  A4                  112.99719                  
  A5                  107.10133                  
  A6                  107.10133                  
  A7                  107.10473                  
  A8                  107.10473                  
  A9                  109.47122                  
  A10                 109.47122                  
  A11                 109.47122                  
  A12                 109.47122                  
  A13                 109.47122                  
  A14                 109.47122                  
  D1                    0.                       
  D2                  180.                       
  D3                  180.                       
  D4                  -64.97008                  
  D5                   64.97008                  
  D6                  115.02768                  
  D7                 -115.02768                  
  D8                    0.                       
  D9                  120.                       
  D10                -120.                       
  D11                   0.                       
  D12                -120.                       
  D13                 120.                       
 
     6 tetrahedral angles replaced.

 GradGradGradGradGradGradGradGradGradGradGradGradGradGradGradGradGradGrad
 Berny optimization.
 Initialization pass.
                           ----------------------------
                           !    Initial Parameters    !
                           ! (Angstroms and Degrees)  !
 --------------------------                            --------------------------
 ! Name  Definition              Value          Derivative Info.                !
 --------------------------------------------------------------------------------
 ! R1    R(1,2)                  1.4114         estimate D2E/DX2                !
 ! R2    R(1,5)                  1.4087         estimate D2E/DX2                !
 ! R3    R(2,3)                  1.5323         estimate D2E/DX2                !
 ! R4    R(2,7)                  1.07           estimate D2E/DX2                !
 ! R5    R(2,8)                  1.07           estimate D2E/DX2                !
 ! R6    R(3,4)                  1.4118         estimate D2E/DX2                !
 ! R7    R(3,9)                  1.07           estimate D2E/DX2                !
 ! R8    R(3,10)                 1.07           estimate D2E/DX2                !
 ! R9    R(4,6)                  1.4081         estimate D2E/DX2                !
 ! R10   R(5,11)                 1.07           estimate D2E/DX2                !
 ! R11   R(5,12)                 1.07           estimate D2E/DX2                !
 ! R12   R(5,13)                 1.07           estimate D2E/DX2                !
 ! R13   R(6,14)                 1.07           estimate D2E/DX2                !
 ! R14   R(6,15)                 1.07           estimate D2E/DX2                !
 ! R15   R(6,16)                 1.07           estimate D2E/DX2                !
 ! A1    A(2,1,5)              112.9958         estimate D2E/DX2                !
 ! A2    A(1,2,3)              107.9519         estimate D2E/DX2                !
 ! A3    A(1,2,7)              107.1013         estimate D2E/DX2                !
 ! A4    A(1,2,8)              107.1013         estimate D2E/DX2                !
 ! A5    A(3,2,7)              107.1013         estimate D2E/DX2                !
 ! A6    A(3,2,8)              107.1013         estimate D2E/DX2                !
 ! A7    A(7,2,8)              120.0            estimate D2E/DX2                !
 ! A8    A(2,3,4)              107.9358         estimate D2E/DX2                !
 ! A9    A(2,3,9)              107.1047         estimate D2E/DX2                !
 ! A10   A(2,3,10)             107.1047         estimate D2E/DX2                !
 ! A11   A(4,3,9)              107.1047         estimate D2E/DX2                !
 ! A12   A(4,3,10)             107.1047         estimate D2E/DX2                !
 ! A13   A(9,3,10)             120.0            estimate D2E/DX2                !
 ! A14   A(3,4,6)              112.9972         estimate D2E/DX2                !
 ! A15   A(1,5,11)             109.4712         estimate D2E/DX2                !
 ! A16   A(1,5,12)             109.4712         estimate D2E/DX2                !
 ! A17   A(1,5,13)             109.4712         estimate D2E/DX2                !
 ! A18   A(11,5,12)            109.4712         estimate D2E/DX2                !
 ! A19   A(11,5,13)            109.4712         estimate D2E/DX2                !
 ! A20   A(12,5,13)            109.4712         estimate D2E/DX2                !
 ! A21   A(4,6,14)             109.4712         estimate D2E/DX2                !
 ! A22   A(4,6,15)             109.4712         estimate D2E/DX2                !
 ! A23   A(4,6,16)             109.4712         estimate D2E/DX2                !
 ! A24   A(14,6,15)            109.4712         estimate D2E/DX2                !
 ! A25   A(14,6,16)            109.4712         estimate D2E/DX2                !
 ! A26   A(15,6,16)            109.4712         estimate D2E/DX2                !
 ! D1    D(5,1,2,3)            180.0            estimate D2E/DX2                !
 ! D2    D(5,1,2,7)            -64.9701         estimate D2E/DX2                !
 ! D3    D(5,1,2,8)             64.9701         estimate D2E/DX2                !
 ! D4    D(2,1,5,11)             0.0            estimate D2E/DX2                !
 ! D5    D(2,1,5,12)           120.0            estimate D2E/DX2                !
 ! D6    D(2,1,5,13)          -120.0            estimate D2E/DX2                !
 ! D7    D(1,2,3,4)              0.0            estimate D2E/DX2                !
 ! D8    D(1,2,3,9)            115.0277         estimate D2E/DX2                !
 ! D9    D(1,2,3,10)          -115.0277         estimate D2E/DX2                !
 ! D10   D(7,2,3,4)           -115.0299         estimate D2E/DX2                !
 ! D11   D(7,2,3,9)             -0.0022         estimate D2E/DX2                !
 ! D12   D(7,2,3,10)           129.9424         estimate D2E/DX2                !
 ! D13   D(8,2,3,4)            115.0299         estimate D2E/DX2                !
 ! D14   D(8,2,3,9)           -129.9424         estimate D2E/DX2                !
 ! D15   D(8,2,3,10)             0.0022         estimate D2E/DX2                !
 ! D16   D(2,3,4,6)            180.0            estimate D2E/DX2                !
 ! D17   D(9,3,4,6)             64.9723         estimate D2E/DX2                !
 ! D18   D(10,3,4,6)           -64.9723         estimate D2E/DX2                !
 ! D19   D(3,4,6,14)             0.0            estimate D2E/DX2                !
 ! D20   D(3,4,6,15)          -120.0            estimate D2E/DX2                !
 ! D21   D(3,4,6,16)           120.0            estimate D2E/DX2                !
 --------------------------------------------------------------------------------
 Trust Radius=3.00D-01 FncErr=1.00D-07 GrdErr=1.00D-07
 Number of steps in this run=     72 maximum allowed number of steps=    100.
 GradGradGradGradGradGradGradGradGradGradGradGradGradGradGradGradGradGrad

                          Input orientation:                          
 ---------------------------------------------------------------------
 Center     Atomic      Atomic             Coordinates (Angstroms)
 Number     Number       Type             X           Y           Z
 ---------------------------------------------------------------------
      1          8           0        0.000000    0.000000    0.000000
      2          6           0        0.000000    0.000000    1.411434
      3          6           0        1.457737    0.000000    1.883727
      4          8           0        2.285355    0.000000    0.739899
      5          6           0       -1.296752    0.000000   -0.550325
      6          6           0        3.657987    0.000000    1.054033
      7          1           0       -0.432692    0.926647    1.726081
      8          1           0       -0.432692   -0.926647    1.726081
      9          1           0        1.623773    0.926647    2.392311
     10          1           0        1.623773   -0.926647    2.392311
     11          1           0       -2.019179    0.000000    0.238978
     12          1           0       -1.428024    0.873651   -1.153982
     13          1           0       -1.428024   -0.873651   -1.153982
     14          1           0        3.780613    0.000000    2.116983
     15          1           0        4.118192    0.873651    0.641910
     16          1           0        4.118192   -0.873651    0.641910
 ---------------------------------------------------------------------
                    Distance matrix (angstroms):
                    1          2          3          4          5
     1  O    0.000000
     2  C    1.411434   0.000000
     3  C    2.381895   1.532337   0.000000
     4  O    2.402144   2.381976   1.411842   0.000000
     5  C    1.408696   2.351609   3.675843   3.807384   0.000000
     6  C    3.806817   3.675406   2.351488   1.408119   5.208014
     7  H    2.006303   1.070000   2.111219   3.036282   2.605245
     8  H    2.006303   1.070000   2.111219   3.036282   2.605245
     9  H    3.036192   2.111263   1.070000   2.006697   4.248205
    10  H    3.036192   2.111263   1.070000   2.006697   4.248205
    11  H    2.033272   2.334895   3.846315   4.333582   1.070000
    12  H    2.033272   3.063312   4.280019   4.259018   1.070000
    13  H    2.033272   3.063312   4.280019   4.259018   1.070000
    14  H    4.332973   3.845886   2.334559   2.032771   5.735344
    15  H    4.258500   4.279595   3.063233   2.032771   5.613048
    16  H    4.258500   4.279595   3.063233   2.032771   5.613048
                    6          7          8          9         10
     6  C    0.000000
     7  H    4.247821   0.000000
     8  H    4.247821   1.853294   0.000000
     9  H    2.605320   2.161692   2.847387   0.000000
    10  H    2.605320   2.847387   2.161692   1.853294   0.000000
    11  H    5.735376   2.363703   2.363703   4.332045   4.332045
    12  H    5.613030   3.047664   3.539283   4.678938   5.013056
    13  H    5.613030   3.539283   3.047664   5.013056   4.678938
    14  H    1.070000   4.331676   4.331676   2.363565   2.363565
    15  H    1.070000   4.678544   5.012688   3.047759   3.539365
    16  H    1.070000   5.012688   4.678544   3.539365   3.047759
                   11         12         13         14         15
    11  H    0.000000
    12  H    1.747303   0.000000
    13  H    1.747303   1.747303   0.000000
    14  H    6.096269   6.212277   6.212277   0.000000
    15  H    6.212322   5.829729   6.085951   1.747303   0.000000
    16  H    6.212322   6.085951   5.829729   1.747303   1.747303
                   16
    16  H    0.000000
 Stoichiometry    C4H10O2
 Framework group  CS[SG(C4H2O2),X(H8)]
 Deg. of freedom    25
 Full point group                 CS      NOp   2
 Largest Abelian subgroup         CS      NOp   2
 Largest concise Abelian subgroup CS      NOp   2
                         Standard orientation:                         
 ---------------------------------------------------------------------
 Center     Atomic      Atomic             Coordinates (Angstroms)
 Number     Number       Type             X           Y           Z
 ---------------------------------------------------------------------
      1          8           0        1.190624    0.444545    0.000000
      2          6           0        0.000000    1.202542    0.000000
      3          6           0       -1.181270    0.226500    0.000000
      4          8           0       -0.660850   -1.085926    0.000000
      5          6           0        2.351263    1.242881    0.000000
      6          6           0       -1.663000   -2.075115    0.000000
      7          1           0       -0.033049    1.736520    0.926647
      8          1           0       -0.033049    1.736520   -0.926647
      9          1           0       -1.699457    0.359569    0.926647
     10          1           0       -1.699457    0.359569   -0.926647
     11          1           0        2.073414    2.276177    0.000000
     12          1           0        2.930980    1.029429    0.873651
     13          1           0        2.930980    1.029429   -0.873651
     14          1           0       -2.625513   -1.607710    0.000000
     15          1           0       -1.562499   -2.684651    0.873651
     16          1           0       -1.562499   -2.684651   -0.873651
 ---------------------------------------------------------------------
 Rotational constants (GHZ):      9.6940890      1.7596526      1.5490094
 Standard basis: 6-31+G (6D, 7F)
 There are    72 symmetry adapted cartesian basis functions of A'  symmetry.
 There are    26 symmetry adapted cartesian basis functions of A"  symmetry.
 There are    72 symmetry adapted basis functions of A'  symmetry.
 There are    26 symmetry adapted basis functions of A"  symmetry.
    98 basis functions,   196 primitive gaussians,    98 cartesian basis functions
    25 alpha electrons       25 beta electrons
       nuclear repulsion energy       261.9178803180 Hartrees.
 NAtoms=   16 NActive=   16 NUniq=   12 SFac= 1.78D+00 NAtFMM=   60 NAOKFM=F Big=F
 Integral buffers will be    131072 words long.
 Raffenetti 1 integral format.
 Two-electron integral symmetry is turned on.
 One-electron integrals computed using PRISM.
 NBasis=    98 RedAO= T EigKep=  9.83D-05  NBF=    72    26
 NBsUse=    98 1.00D-06 EigRej= -1.00D+00 NBFU=    72    26
 ExpMin= 4.38D-02 ExpMax= 5.48D+03 ExpMxC= 8.25D+02 IAcc=2 IRadAn=         4 AccDes= 0.00D+00
 Harris functional with IExCor=  205 and IRadAn=       4 diagonalized for initial guess.
 HarFok:  IExCor=  205 AccDes= 0.00D+00 IRadAn=         4 IDoV= 1 UseB2=F ITyADJ=14
 ICtDFT=  3500011 ScaDFX=  1.000000  1.000000  1.000000  1.000000
 FoFCou: FMM=F IPFlag=           0 FMFlag=      100000 FMFlg1=           0
         NFxFlg=           0 DoJE=T BraDBF=F KetDBF=T FulRan=T
         wScrn=  0.000000 ICntrl=     500 IOpCl=  0 I1Cent=   200000004 NGrid=           0
         NMat0=    1 NMatS0=      1 NMatT0=    0 NMatD0=    1 NMtDS0=    0 NMtDT0=    0
 Petite list used in FoFCou.
 Initial guess orbital symmetries:
       Occupied  (A') (A') (A') (A') (A') (A') (A') (A') (A') (A')
                 (A') (A') (A") (A') (A') (A") (A') (A') (A") (A")
                 (A') (A') (A') (A") (A")
       Virtual   (A') (A') (A') (A') (A") (A') (A') (A') (A') (A")
                 (A") (A') (A") (A') (A') (A') (A') (A') (A") (A')
                 (A') (A") (A') (A") (A') (A") (A') (A') (A') (A')
                 (A') (A") (A") (A') (A') (A') (A') (A') (A') (A')
                 (A") (A') (A') (A") (A') (A') (A") (A') (A') (A')
                 (A") (A') (A") (A') (A") (A') (A") (A') (A') (A")
                 (A') (A') (A") (A') (A') (A') (A") (A') (A') (A')
                 (A') (A') (A')
 The electronic state of the initial guess is 1-A'.
 Keep R1 ints in memory in symmetry-blocked form, NReq=18020200.
 Requested convergence on RMS density matrix=1.00D-08 within 128 cycles.
 Requested convergence on MAX density matrix=1.00D-06.
 Requested convergence on             energy=1.00D-06.
 No special actions if energy rises.
 SCF Done:  E(RHF) =  -306.804728333     A.U. after   11 cycles
            NFock= 11  Conv=0.39D-08     -V/T= 1.9978

 **********************************************************************

            Population analysis using the SCF density.

 **********************************************************************

 Orbital symmetries:
       Occupied  (A') (A') (A') (A') (A') (A') (A') (A') (A') (A')
                 (A') (A') (A") (A') (A') (A") (A') (A") (A') (A")
                 (A') (A') (A') (A") (A")
       Virtual   (A') (A') (A') (A") (A') (A') (A") (A') (A') (A")
                 (A') (A") (A') (A') (A') (A') (A') (A") (A') (A')
                 (A") (A') (A") (A') (A") (A') (A') (A") (A') (A')
                 (A') (A') (A") (A') (A') (A') (A') (A') (A') (A')
                 (A") (A") (A') (A') (A") (A') (A') (A') (A') (A')
                 (A") (A') (A") (A') (A") (A") (A') (A') (A') (A")
                 (A') (A') (A') (A") (A") (A') (A') (A') (A') (A')
                 (A') (A') (A')
 The electronic state is 1-A'.
 Alpha  occ. eigenvalues --  -20.54077 -20.54073 -11.27450 -11.27392 -11.25758
 Alpha  occ. eigenvalues --  -11.25750  -1.38516  -1.35824  -1.03717  -0.93773
 Alpha  occ. eigenvalues --   -0.90565  -0.82245  -0.70880  -0.66051  -0.64902
 Alpha  occ. eigenvalues --   -0.64454  -0.59987  -0.59498  -0.57576  -0.54699
 Alpha  occ. eigenvalues --   -0.50328  -0.45726  -0.44144  -0.42043  -0.39257
 Alpha virt. eigenvalues --    0.08564   0.08791   0.09826   0.10060   0.11162
 Alpha virt. eigenvalues --    0.11365   0.12538   0.13132   0.14431   0.15124
 Alpha virt. eigenvalues --    0.16701   0.17152   0.17205   0.20595   0.22669
 Alpha virt. eigenvalues --    0.24799   0.31391   0.32099   0.33314   0.36441
 Alpha virt. eigenvalues --    0.36454   0.38075   0.38286   0.38770   0.39121
 Alpha virt. eigenvalues --    0.40890   0.41375   0.42129   0.43753   0.44849
 Alpha virt. eigenvalues --    0.46423   0.48314   0.48803   0.50541   0.51473
 Alpha virt. eigenvalues --    0.55539   0.59106   0.59643   0.70033   0.87467
 Alpha virt. eigenvalues --    0.88157   0.91385   0.92467   0.93024   0.93673
 Alpha virt. eigenvalues --    0.95465   0.95582   0.99243   1.01320   1.07227
 Alpha virt. eigenvalues --    1.18068   1.26416   1.27467   1.31191   1.32809
 Alpha virt. eigenvalues --    1.33575   1.35106   1.38115   1.38490   1.41448
 Alpha virt. eigenvalues --    1.41508   1.46009   1.51348   1.52793   1.69967
 Alpha virt. eigenvalues --    1.70824   1.71828   1.75661   1.80356   2.11366
 Alpha virt. eigenvalues --    2.23685   2.24400   2.50429
          Condensed to atoms (all electrons):
               1          2          3          4          5          6
     1  O    8.744265   0.081851  -0.046557   0.076453  -0.113288  -0.009295
     2  C    0.081851   6.029062  -0.369755  -0.046590  -0.153145  -0.042517
     3  C   -0.046557  -0.369755   6.029649   0.082236  -0.042548  -0.153295
     4  O    0.076453  -0.046590   0.082236   8.744826  -0.009325  -0.113885
     5  C   -0.113288  -0.153145  -0.042548  -0.009325   5.300647  -0.012436
     6  C   -0.009295  -0.042517  -0.153295  -0.113885  -0.012436   5.300856
     7  H   -0.063136   0.437347  -0.085396   0.006776   0.010206  -0.000656
     8  H   -0.063136   0.437347  -0.085396   0.006776   0.010206  -0.000656
     9  H    0.006773  -0.085299   0.437182  -0.063062  -0.000659   0.010232
    10  H    0.006773  -0.085299   0.437182  -0.063062  -0.000659   0.010232
    11  H   -0.067636   0.018032  -0.033358  -0.000236   0.424825  -0.000492
    12  H   -0.064080  -0.003744   0.007625  -0.000333   0.412861  -0.000010
    13  H   -0.064080  -0.003744   0.007625  -0.000333   0.412861  -0.000010
    14  H   -0.000237  -0.033333   0.017969  -0.067750  -0.000492   0.424939
    15  H   -0.000334   0.007610  -0.003739  -0.064199  -0.000010   0.412950
    16  H   -0.000334   0.007610  -0.003739  -0.064199  -0.000010   0.412950
               7          8          9         10         11         12
     1  O   -0.063136  -0.063136   0.006773   0.006773  -0.067636  -0.064080
     2  C    0.437347   0.437347  -0.085299  -0.085299   0.018032  -0.003744
     3  C   -0.085396  -0.085396   0.437182   0.437182  -0.033358   0.007625
     4  O    0.006776   0.006776  -0.063062  -0.063062  -0.000236  -0.000333
     5  C    0.010206   0.010206  -0.000659  -0.000659   0.424825   0.412861
     6  C   -0.000656  -0.000656   0.010232   0.010232  -0.000492  -0.000010
     7  H    0.560628  -0.039838  -0.006025   0.003740   0.000852   0.001667
     8  H   -0.039838   0.560628   0.003740  -0.006025   0.000852  -0.000722
     9  H   -0.006025   0.003740   0.560520  -0.039824  -0.000020   0.000003
    10  H    0.003740  -0.006025  -0.039824   0.560520  -0.000020   0.000005
    11  H    0.000852   0.000852  -0.000020  -0.000020   0.584833  -0.037258
    12  H    0.001667  -0.000722   0.000003   0.000005  -0.037258   0.541134
    13  H   -0.000722   0.001667   0.000005   0.000003  -0.037258  -0.038439
    14  H   -0.000020  -0.000020   0.000852   0.000852   0.000000   0.000000
    15  H    0.000003   0.000005   0.001668  -0.000722   0.000000   0.000000
    16  H    0.000005   0.000003  -0.000722   0.001668   0.000000   0.000000
              13         14         15         16
     1  O   -0.064080  -0.000237  -0.000334  -0.000334
     2  C   -0.003744  -0.033333   0.007610   0.007610
     3  C    0.007625   0.017969  -0.003739  -0.003739
     4  O   -0.000333  -0.067750  -0.064199  -0.064199
     5  C    0.412861  -0.000492  -0.000010  -0.000010
     6  C   -0.000010   0.424939   0.412950   0.412950
     7  H   -0.000722  -0.000020   0.000003   0.000005
     8  H    0.001667  -0.000020   0.000005   0.000003
     9  H    0.000005   0.000852   0.001668  -0.000722
    10  H    0.000003   0.000852  -0.000722   0.001668
    11  H   -0.037258   0.000000   0.000000   0.000000
    12  H   -0.038439   0.000000   0.000000   0.000000
    13  H    0.541134   0.000000   0.000000   0.000000
    14  H    0.000000   0.584949  -0.037263  -0.037263
    15  H    0.000000  -0.037263   0.541259  -0.038459
    16  H    0.000000  -0.037263  -0.038459   0.541259
 Mulliken charges:
               1
     1  O   -0.424001
     2  C   -0.195432
     3  C   -0.195685
     4  O   -0.424093
     5  C   -0.239034
     6  C   -0.238907
     7  H    0.174569
     8  H    0.174569
     9  H    0.174635
    10  H    0.174635
    11  H    0.146883
    12  H    0.181292
    13  H    0.181292
    14  H    0.146816
    15  H    0.181231
    16  H    0.181231
 Sum of Mulliken charges =   0.00000
 Mulliken charges with hydrogens summed into heavy atoms:
               1
     1  O   -0.424001
     2  C    0.153705
     3  C    0.153584
     4  O   -0.424093
     5  C    0.270433
     6  C    0.270371
 Electronic spatial extent (au):  <R**2>=            807.8102
 Charge=              0.0000 electrons
 Dipole moment (field-independent basis, Debye):
    X=             -1.8881    Y=              2.2885    Z=              0.0000  Tot=              2.9668
 Quadrupole moment (field-independent basis, Debye-Ang):
   XX=            -33.1181   YY=            -34.8883   ZZ=            -37.7716
   XY=              4.6002   XZ=              0.0000   YZ=              0.0000
 Traceless Quadrupole moment (field-independent basis, Debye-Ang):
   XX=              2.1412   YY=              0.3710   ZZ=             -2.5122
   XY=              4.6002   XZ=              0.0000   YZ=              0.0000
 Octapole moment (field-independent basis, Debye-Ang**2):
  XXX=              9.2598  YYY=             -8.2966  ZZZ=              0.0000  XYY=             -2.6907
  XXY=              0.4156  XXZ=              0.0000  XZZ=              0.1101  YZZ=             -0.1305
  YYZ=              0.0000  XYZ=              0.0000
 Hexadecapole moment (field-independent basis, Debye-Ang**3):
 XXXX=           -543.1058 YYYY=           -429.5988 ZZZZ=            -63.3469 XXXY=           -146.9198
 XXXZ=              0.0000 YYYX=           -149.3509 YYYZ=              0.0000 ZZZX=              0.0000
 ZZZY=              0.0000 XXYY=           -158.0778 XXZZ=           -103.1404 YYZZ=            -82.2574
 XXYZ=              0.0000 YYXZ=              0.0000 ZZXY=            -54.5000
 N-N= 2.619178803180D+02 E-N=-1.245353815886D+03  KE= 3.074822732885D+02
 Symmetry A'   KE= 2.899537279703D+02
 Symmetry A"   KE= 1.752854531818D+01
 Calling FoFJK, ICntrl=      2127 FMM=F ISym2X=1 I1Cent= 0 IOpClX= 0 NMat=1 NMatS=1 NMatT=0.
 ***** Axes restored to original set *****
 -------------------------------------------------------------------
 Center     Atomic                   Forces (Hartrees/Bohr)
 Number     Number              X              Y              Z
 -------------------------------------------------------------------
      1        8          -0.001850505    0.000000000   -0.007576842
      2        6           0.036254759    0.000000000   -0.012363336
      3        6          -0.022021007    0.000000000   -0.031514550
      4        8           0.005346050    0.000000000   -0.004862151
      5        6          -0.005033814    0.000000000   -0.006111812
      6        6           0.007992516    0.000000000   -0.001932600
      7        1          -0.019027654   -0.002955635    0.012739050
      8        1          -0.019027654    0.002955635    0.012739050
      9        1           0.007967492   -0.002957796    0.021439984
     10        1           0.007967492    0.002957796    0.021439984
     11        1          -0.012829102    0.000000000    0.003341796
     12        1          -0.001552173    0.006734013   -0.005361035
     13        1          -0.001552173   -0.006734013   -0.005361035
     14        1           0.008482199    0.000000000    0.010234392
     15        1           0.004441787    0.006736254   -0.003425446
     16        1           0.004441787   -0.006736254   -0.003425446
 -------------------------------------------------------------------
 Cartesian Forces:  Max     0.036254759 RMS     0.011159617

 GradGradGradGradGradGradGradGradGradGradGradGradGradGradGradGradGradGrad
 Berny optimization.
 FormGI is forming the generalized inverse of G from B-inverse, IUseBI=4.
 Internal  Forces:  Max     0.025871409 RMS     0.011508096
 Search for a local minimum.
 Step number   1 out of a maximum of   72
 All quantities printed in internal units (Hartrees-Bohrs-Radians)
 Mixed Optimization -- RFO/linear search
 Second derivative matrix not updated -- first step.
 ITU=  0
     Eigenvalues ---    0.00338   0.01535   0.01541   0.01577   0.01584
     Eigenvalues ---    0.05845   0.05846   0.06057   0.06058   0.10453
     Eigenvalues ---    0.10453   0.10456   0.10456   0.11062   0.11065
     Eigenvalues ---    0.13474   0.13476   0.16000   0.16000   0.16000
     Eigenvalues ---    0.16000   0.16000   0.16000   0.22541   0.22541
     Eigenvalues ---    0.25000   0.25000   0.29209   0.37230   0.37230
     Eigenvalues ---    0.37230   0.37230   0.37230   0.37230   0.37230
     Eigenvalues ---    0.37230   0.37230   0.37230   0.43713   0.43777
     Eigenvalues ---    0.44209   0.44301
 RFO step:  Lambda=-3.56473790D-02 EMin= 3.38189598D-03
 Linear search not attempted -- first point.
 Maximum step size (   0.300) exceeded in Quadratic search.
    -- Step size scaled by   0.870
 Iteration  1 RMS(Cart)=  0.15013278 RMS(Int)=  0.00309858
 Iteration  2 RMS(Cart)=  0.00429359 RMS(Int)=  0.00125748
 Iteration  3 RMS(Cart)=  0.00000590 RMS(Int)=  0.00125747
 Iteration  4 RMS(Cart)=  0.00000001 RMS(Int)=  0.00125747
 ClnCor:  largest displacement from symmetrization is 3.74D-09 for atom    16.
 Variable       Old X    -DE/DX   Delta X   Delta X   Delta X     New X
                                 (Linear)    (Quad)   (Total)
    R1        2.66722   0.02107   0.00000   0.03872   0.03872   2.70594
    R2        2.66205   0.02457   0.00000   0.04475   0.04475   2.70680
    R3        2.89570   0.02587   0.00000   0.06868   0.06868   2.96437
    R4        2.02201   0.00888   0.00000   0.01894   0.01894   2.04095
    R5        2.02201   0.00888   0.00000   0.01894   0.01894   2.04095
    R6        2.66799   0.02076   0.00000   0.03821   0.03821   2.70620
    R7        2.02201   0.00887   0.00000   0.01891   0.01891   2.04091
    R8        2.02201   0.00887   0.00000   0.01891   0.01891   2.04091
    R9        2.66096   0.02504   0.00000   0.04552   0.04552   2.70648
   R10        2.02201   0.01113   0.00000   0.02373   0.02373   2.04574
   R11        2.02201   0.00871   0.00000   0.01858   0.01858   2.04059
   R12        2.02201   0.00871   0.00000   0.01858   0.01858   2.04059
   R13        2.02201   0.01114   0.00000   0.02375   0.02375   2.04576
   R14        2.02201   0.00873   0.00000   0.01862   0.01862   2.04062
   R15        2.02201   0.00873   0.00000   0.01862   0.01862   2.04062
    A1        1.97215   0.02495   0.00000   0.07599   0.07599   2.04813
    A2        1.88412   0.02444   0.00000   0.10255   0.09910   1.98321
    A3        1.86927  -0.00535   0.00000   0.00155  -0.00193   1.86734
    A4        1.86927  -0.00535   0.00000   0.00155  -0.00193   1.86734
    A5        1.86927   0.00270   0.00000   0.02272   0.02086   1.89013
    A6        1.86927   0.00270   0.00000   0.02272   0.02086   1.89013
    A7        2.09440  -0.01445   0.00000  -0.12697  -0.12681   1.96759
    A8        1.88384   0.02452   0.00000   0.10281   0.09934   1.98318
    A9        1.86933   0.00271   0.00000   0.02280   0.02095   1.89028
   A10        1.86933   0.00271   0.00000   0.02280   0.02095   1.89028
   A11        1.86933  -0.00539   0.00000   0.00133  -0.00217   1.86716
   A12        1.86933  -0.00539   0.00000   0.00133  -0.00217   1.86716
   A13        2.09440  -0.01443   0.00000  -0.12689  -0.12673   1.96766
   A14        1.97217   0.02500   0.00000   0.07613   0.07613   2.04830
   A15        1.91063   0.01121   0.00000   0.05206   0.05190   1.96253
   A16        1.91063  -0.00130   0.00000  -0.00688  -0.00703   1.90360
   A17        1.91063  -0.00130   0.00000  -0.00688  -0.00703   1.90360
   A18        1.91063  -0.00337   0.00000  -0.01274  -0.01290   1.89773
   A19        1.91063  -0.00337   0.00000  -0.01274  -0.01290   1.89773
   A20        1.91063  -0.00188   0.00000  -0.01282  -0.01296   1.89768
   A21        1.91063   0.01126   0.00000   0.05229   0.05212   1.96275
   A22        1.91063  -0.00126   0.00000  -0.00671  -0.00687   1.90377
   A23        1.91063  -0.00126   0.00000  -0.00671  -0.00687   1.90377
   A24        1.91063  -0.00341   0.00000  -0.01293  -0.01309   1.89754
   A25        1.91063  -0.00341   0.00000  -0.01293  -0.01309   1.89754
   A26        1.91063  -0.00192   0.00000  -0.01300  -0.01314   1.89750
    D1        3.14159   0.00000   0.00000   0.00000   0.00000   3.14159
    D2       -1.13394   0.01245   0.00000   0.07747   0.07751  -1.05643
    D3        1.13394  -0.01245   0.00000  -0.07747  -0.07751   1.05643
    D4        0.00000   0.00000   0.00000   0.00000   0.00000   0.00000
    D5        2.09440   0.00194   0.00000   0.01206   0.01208   2.10647
    D6       -2.09440  -0.00194   0.00000  -0.01206  -0.01208  -2.10647
    D7        0.00000   0.00000   0.00000   0.00000   0.00000   0.00000
    D8        2.00761   0.00714   0.00000   0.06342   0.06439   2.07200
    D9       -2.00761  -0.00714   0.00000  -0.06342  -0.06439  -2.07200
   D10       -2.00765  -0.00715   0.00000  -0.06353  -0.06449  -2.07214
   D11       -0.00004  -0.00001   0.00000  -0.00010  -0.00010  -0.00014
   D12        2.26792  -0.01429   0.00000  -0.12695  -0.12888   2.13905
   D13        2.00765   0.00715   0.00000   0.06353   0.06449   2.07214
   D14       -2.26792   0.01429   0.00000   0.12695   0.12888  -2.13905
   D15        0.00004   0.00001   0.00000   0.00010   0.00010   0.00014
   D16        3.14159   0.00000   0.00000   0.00000   0.00000   3.14159
   D17        1.13398  -0.01247   0.00000  -0.07757  -0.07760   1.05638
   D18       -1.13398   0.01247   0.00000   0.07757   0.07760  -1.05638
   D19        0.00000   0.00000   0.00000   0.00000   0.00000   0.00000
   D20       -2.09440  -0.00195   0.00000  -0.01207  -0.01209  -2.10649
   D21        2.09440   0.00195   0.00000   0.01207   0.01209   2.10649
         Item               Value     Threshold  Converged?
 Maximum Force            0.025871     0.000450     NO 
 RMS     Force            0.011508     0.000300     NO 
 Maximum Displacement     0.397136     0.001800     NO 
 RMS     Displacement     0.146848     0.001200     NO 
 Predicted change in Energy=-2.058327D-02
 GradGradGradGradGradGradGradGradGradGradGradGradGradGradGradGradGradGrad

                          Input orientation:                          
 ---------------------------------------------------------------------
 Center     Atomic      Atomic             Coordinates (Angstroms)
 Number     Number       Type             X           Y           Z
 ---------------------------------------------------------------------
      1          8           0       -0.144642    0.000000   -0.064162
      2          6           0       -0.002845    0.000000    1.360722
      3          6           0        1.489509    0.000000    1.844079
      4          8           0        2.439812    0.000000    0.772763
      5          6           0       -1.475819    0.000000   -0.592996
      6          6           0        3.828163    0.000000    1.124466
      7          1           0       -0.477258    0.899231    1.725089
      8          1           0       -0.477258   -0.899231    1.725089
      9          1           0        1.660406    0.899239    2.417293
     10          1           0        1.660406   -0.899239    2.417293
     11          1           0       -2.229334    0.000000    0.184271
     12          1           0       -1.611344    0.877622   -1.207366
     13          1           0       -1.611344   -0.877622   -1.207366
     14          1           0        3.983355    0.000000    2.195855
     15          1           0        4.298227    0.877581    0.706170
     16          1           0        4.298227   -0.877581    0.706170
 ---------------------------------------------------------------------
                    Distance matrix (angstroms):
                    1          2          3          4          5
     1  O    0.000000
     2  C    1.431922   0.000000
     3  C    2.512337   1.568679   0.000000
     4  O    2.716588   2.512422   1.432059   0.000000
     5  C    1.432375   2.446767   3.838295   4.146983   0.000000
     6  C    4.146808   3.838285   2.446864   1.432206   5.575114
     7  H    2.029944   1.080022   2.165860   3.197630   2.679414
     8  H    2.029944   1.080022   2.165860   3.197630   2.679414
     9  H    3.197569   2.165958   1.080005   2.029922   4.439187
    10  H    3.197569   2.165958   1.080005   2.029922   4.439187
    11  H    2.099443   2.518193   4.072439   4.706087   1.082557
    12  H    2.056295   3.154769   4.438112   4.593800   1.079833
    13  H    2.056295   3.154769   4.438112   4.593800   1.079833
    14  H    4.706170   4.072742   2.518533   2.099456   6.130275
    15  H    4.593762   4.438220   3.154977   2.056280   5.983108
    16  H    4.593762   4.438220   3.154977   2.056280   5.983108
                    6          7          8          9         10
     6  C    0.000000
     7  H    4.439146   0.000000
     8  H    4.439146   1.798462   0.000000
     9  H    2.679403   2.246943   2.878063   0.000000
    10  H    2.679403   2.878063   2.246943   1.798479   0.000000
    11  H    6.130028   2.500502   2.500502   4.574396   4.574396
    12  H    5.982967   3.144188   3.611462   4.882926   5.196127
    13  H    5.982967   3.611462   3.144188   5.196127   4.882926
    14  H    1.082571   4.574637   4.574637   2.500751   2.500751
    15  H    1.079852   4.883024   5.196202   3.144282   3.611527
    16  H    1.079852   5.196202   4.883024   3.611527   3.144282
                   11         12         13         14         15
    11  H    0.000000
    12  H    1.757495   0.000000
    13  H    1.757495   1.755245   0.000000
    14  H    6.530235   6.607026   6.607026   0.000000
    15  H    6.606934   6.211654   6.454873   1.757400   0.000000
    16  H    6.606934   6.454873   6.211654   1.757400   1.755162
                   16
    16  H    0.000000
 Stoichiometry    C4H10O2
 Framework group  CS[SG(C4H2O2),X(H8)]
 Deg. of freedom    25
 Full point group                 CS      NOp   2
 Largest Abelian subgroup         CS      NOp   2
 Largest concise Abelian subgroup CS      NOp   2
                         Standard orientation:                         
 ---------------------------------------------------------------------
 Center     Atomic      Atomic             Coordinates (Angstroms)
 Number     Number       Type             X           Y           Z
 ---------------------------------------------------------------------
      1          8           0        1.297700    0.581562    0.000000
      2          6           0        0.000000    1.186853    0.000000
      3          6           0       -1.177328    0.150198    0.000000
      4          8           0       -0.741062   -1.213792    0.000000
      5          6           0        2.431874    1.456403    0.000000
      6          6           0       -1.752093   -2.228203    0.000000
      7          1           0       -0.071208    1.780790    0.899231
      8          1           0       -0.071208    1.780790   -0.899231
      9          1           0       -1.757484    0.295790    0.899239
     10          1           0       -1.757484    0.295790   -0.899239
     11          1           0        2.148041    2.501089    0.000000
     12          1           0        3.029371    1.259387    0.877622
     13          1           0        3.029371    1.259387   -0.877622
     14          1           0       -2.752641   -1.814847    0.000000
     15          1           0       -1.632290   -2.845923    0.877581
     16          1           0       -1.632290   -2.845923   -0.877581
 ---------------------------------------------------------------------
 Rotational constants (GHZ):     10.1041958      1.5217480      1.3681385
 Standard basis: 6-31+G (6D, 7F)
 There are    72 symmetry adapted cartesian basis functions of A'  symmetry.
 There are    26 symmetry adapted cartesian basis functions of A"  symmetry.
 There are    72 symmetry adapted basis functions of A'  symmetry.
 There are    26 symmetry adapted basis functions of A"  symmetry.
    98 basis functions,   196 primitive gaussians,    98 cartesian basis functions
    25 alpha electrons       25 beta electrons
       nuclear repulsion energy       252.6892851923 Hartrees.
 NAtoms=   16 NActive=   16 NUniq=   12 SFac= 1.78D+00 NAtFMM=   60 NAOKFM=F Big=F
 Integral buffers will be    131072 words long.
 Raffenetti 1 integral format.
 Two-electron integral symmetry is turned on.
 One-electron integrals computed using PRISM.
 NBasis=    98 RedAO= T EigKep=  9.86D-05  NBF=    72    26
 NBsUse=    98 1.00D-06 EigRej= -1.00D+00 NBFU=    72    26
 Initial guess from the checkpoint file:  "g_0.chk"
 B after Tr=     0.000000    0.000000    0.000000
         Rot=    0.999878    0.000000    0.000000   -0.015645 Ang=  -1.79 deg.
 Initial guess orbital symmetries:
       Occupied  (A') (A') (A') (A') (A') (A') (A') (A') (A') (A')
                 (A') (A') (A") (A') (A') (A") (A') (A") (A') (A")
                 (A') (A') (A') (A") (A")
       Virtual   (A') (A') (A') (A') (A') (A') (A') (A') (A') (A')
                 (A') (A') (A') (A') (A') (A') (A') (A') (A') (A')
                 (A') (A') (A') (A') (A') (A') (A') (A') (A') (A')
                 (A') (A') (A') (A') (A') (A') (A') (A') (A') (A')
                 (A') (A') (A') (A') (A') (A') (A') (A') (A') (A')
                 (A') (A') (A') (A") (A") (A") (A") (A") (A") (A")
                 (A") (A") (A") (A") (A") (A") (A") (A") (A") (A")
                 (A") (A") (A")
 ExpMin= 4.38D-02 ExpMax= 5.48D+03 ExpMxC= 8.25D+02 IAcc=2 IRadAn=         4 AccDes= 0.00D+00
 Harris functional with IExCor=  205 and IRadAn=       4 diagonalized for initial guess.
 HarFok:  IExCor=  205 AccDes= 0.00D+00 IRadAn=         4 IDoV= 1 UseB2=F ITyADJ=14
 ICtDFT=  3500011 ScaDFX=  1.000000  1.000000  1.000000  1.000000
 FoFCou: FMM=F IPFlag=           0 FMFlag=      100000 FMFlg1=           0
         NFxFlg=           0 DoJE=T BraDBF=F KetDBF=T FulRan=T
         wScrn=  0.000000 ICntrl=     500 IOpCl=  0 I1Cent=   200000004 NGrid=           0
         NMat0=    1 NMatS0=      1 NMatT0=    0 NMatD0=    1 NMtDS0=    0 NMtDT0=    0
 Petite list used in FoFCou.
 Keep R1 ints in memory in symmetry-blocked form, NReq=18020200.
 Requested convergence on RMS density matrix=1.00D-08 within 128 cycles.
 Requested convergence on MAX density matrix=1.00D-06.
 Requested convergence on             energy=1.00D-06.
 No special actions if energy rises.
 SCF Done:  E(RHF) =  -306.818718121     A.U. after   11 cycles
            NFock= 11  Conv=0.24D-08     -V/T= 1.9996
 Calling FoFJK, ICntrl=      2127 FMM=F ISym2X=1 I1Cent= 0 IOpClX= 0 NMat=1 NMatS=1 NMatT=0.
 ***** Axes restored to original set *****
 -------------------------------------------------------------------
 Center     Atomic                   Forces (Hartrees/Bohr)
 Number     Number              X              Y              Z
 -------------------------------------------------------------------
      1        8           0.006162754    0.000000000    0.000585446
      2        6           0.016841509    0.000000000   -0.012692067
      3        6          -0.006104564    0.000000000   -0.020227850
      4        8          -0.005462622    0.000000000   -0.003131761
      5        6          -0.000724198    0.000000000   -0.001152328
      6        6           0.001392011    0.000000000   -0.000476202
      7        1          -0.004836464   -0.002474607    0.007569906
      8        1          -0.004836464    0.002474607    0.007569906
      9        1          -0.000534998   -0.002469521    0.008980531
     10        1          -0.000534998    0.002469521    0.008980531
     11        1          -0.000189991    0.000000000    0.002843516
     12        1           0.001457909    0.001298304    0.000124360
     13        1           0.001457909   -0.001298304    0.000124360
     14        1          -0.001539208    0.000000000    0.002420594
     15        1          -0.001274293    0.001301101   -0.000759472
     16        1          -0.001274293   -0.001301101   -0.000759472
 -------------------------------------------------------------------
 Cartesian Forces:  Max     0.020227850 RMS     0.005308485

 GradGradGradGradGradGradGradGradGradGradGradGradGradGradGradGradGradGrad
 Berny optimization.
 Using GEDIIS/GDIIS optimizer.
 FormGI is forming the generalized inverse of G from B-inverse, IUseBI=4.
 Internal  Forces:  Max     0.016119290 RMS     0.004055883
 Search for a local minimum.
 Step number   2 out of a maximum of   72
 All quantities printed in internal units (Hartrees-Bohrs-Radians)
 Mixed Optimization -- RFO/linear search
 Update second derivatives using D2CorX and points    1    2
 DE= -1.40D-02 DEPred=-2.06D-02 R= 6.80D-01
 TightC=F SS=  1.41D+00  RLast= 4.02D-01 DXNew= 5.0454D-01 1.2073D+00
 Trust test= 6.80D-01 RLast= 4.02D-01 DXMaxT set to 5.05D-01
 ITU=  1  0
 Use linear search instead of GDIIS.
     Eigenvalues ---    0.00338   0.01535   0.01541   0.01577   0.01584
     Eigenvalues ---    0.04939   0.04939   0.05791   0.05890   0.10129
     Eigenvalues ---    0.10130   0.10501   0.10530   0.11736   0.12030
     Eigenvalues ---    0.13984   0.13985   0.15924   0.16000   0.16000
     Eigenvalues ---    0.16000   0.16000   0.16322   0.22293   0.23586
     Eigenvalues ---    0.25000   0.26779   0.34543   0.36955   0.37230
     Eigenvalues ---    0.37230   0.37230   0.37230   0.37230   0.37230
     Eigenvalues ---    0.37230   0.37230   0.37648   0.43742   0.43973
     Eigenvalues ---    0.44258   0.49509
 RFO step:  Lambda=-5.19540768D-03 EMin= 3.38189598D-03
 Quartic linear search produced a step of -0.03158.
 Iteration  1 RMS(Cart)=  0.06044676 RMS(Int)=  0.00064016
 Iteration  2 RMS(Cart)=  0.00093863 RMS(Int)=  0.00012792
 Iteration  3 RMS(Cart)=  0.00000033 RMS(Int)=  0.00012792
 ClnCor:  largest displacement from symmetrization is 1.72D-09 for atom    13.
 Variable       Old X    -DE/DX   Delta X   Delta X   Delta X     New X
                                 (Linear)    (Quad)   (Total)
    R1        2.70594  -0.00332  -0.00122  -0.00167  -0.00290   2.70304
    R2        2.70680  -0.00258  -0.00141   0.00085  -0.00056   2.70624
    R3        2.96437  -0.01612  -0.00217  -0.04229  -0.04446   2.91992
    R4        2.04095   0.00262  -0.00060   0.00936   0.00876   2.04971
    R5        2.04095   0.00262  -0.00060   0.00936   0.00876   2.04971
    R6        2.70620  -0.00339  -0.00121  -0.00191  -0.00311   2.70309
    R7        2.04091   0.00263  -0.00060   0.00937   0.00878   2.04969
    R8        2.04091   0.00263  -0.00060   0.00937   0.00878   2.04969
    R9        2.70648  -0.00251  -0.00144   0.00112  -0.00032   2.70616
   R10        2.04574   0.00217  -0.00075   0.00891   0.00816   2.05390
   R11        2.04059   0.00080  -0.00059   0.00469   0.00410   2.04469
   R12        2.04059   0.00080  -0.00059   0.00469   0.00410   2.04469
   R13        2.04576   0.00217  -0.00075   0.00892   0.00817   2.05393
   R14        2.04062   0.00080  -0.00059   0.00468   0.00409   2.04472
   R15        2.04062   0.00080  -0.00059   0.00468   0.00409   2.04472
    A1        2.04813  -0.00333  -0.00240  -0.00172  -0.00412   2.04402
    A2        1.98321  -0.01214  -0.00313  -0.02555  -0.02835   1.95486
    A3        1.86734   0.00618   0.00006   0.04461   0.04483   1.91217
    A4        1.86734   0.00618   0.00006   0.04461   0.04483   1.91217
    A5        1.89013   0.00285  -0.00066   0.00960   0.00911   1.89925
    A6        1.89013   0.00285  -0.00066   0.00960   0.00911   1.89925
    A7        1.96759  -0.00645   0.00400  -0.08650  -0.08282   1.88477
    A8        1.98318  -0.01215  -0.00314  -0.02552  -0.02833   1.95485
    A9        1.89028   0.00284  -0.00066   0.00950   0.00901   1.89929
   A10        1.89028   0.00284  -0.00066   0.00950   0.00901   1.89929
   A11        1.86716   0.00619   0.00007   0.04472   0.04495   1.91211
   A12        1.86716   0.00619   0.00007   0.04472   0.04495   1.91211
   A13        1.96766  -0.00645   0.00400  -0.08652  -0.08285   1.88482
   A14        2.04830  -0.00337  -0.00240  -0.00186  -0.00426   2.04404
   A15        1.96253  -0.00200  -0.00164  -0.00478  -0.00645   1.95608
   A16        1.90360  -0.00167   0.00022  -0.01047  -0.01029   1.89332
   A17        1.90360  -0.00167   0.00022  -0.01047  -0.01029   1.89332
   A18        1.89773   0.00173   0.00041   0.00770   0.00808   1.90581
   A19        1.89773   0.00173   0.00041   0.00770   0.00808   1.90581
   A20        1.89768   0.00204   0.00041   0.01102   0.01139   1.90907
   A21        1.96275  -0.00203  -0.00165  -0.00493  -0.00661   1.95614
   A22        1.90377  -0.00169   0.00022  -0.01055  -0.01037   1.89340
   A23        1.90377  -0.00169   0.00022  -0.01055  -0.01037   1.89340
   A24        1.89754   0.00175   0.00041   0.00781   0.00819   1.90573
   A25        1.89754   0.00175   0.00041   0.00781   0.00819   1.90573
   A26        1.89750   0.00206   0.00041   0.01114   0.01151   1.90900
    D1        3.14159   0.00000   0.00000   0.00000   0.00000   3.14159
    D2       -1.05643   0.00046  -0.00245   0.02679   0.02409  -1.03234
    D3        1.05643  -0.00046   0.00245  -0.02679  -0.02409   1.03234
    D4        0.00000   0.00000   0.00000   0.00000   0.00000   0.00000
    D5        2.10647  -0.00026  -0.00038  -0.00056  -0.00095   2.10553
    D6       -2.10647   0.00026   0.00038   0.00056   0.00095  -2.10553
    D7        0.00000   0.00000   0.00000   0.00000   0.00000   0.00000
    D8        2.07200   0.00220  -0.00203   0.04679   0.04467   2.11667
    D9       -2.07200  -0.00220   0.00203  -0.04679  -0.04467  -2.11667
   D10       -2.07214  -0.00220   0.00204  -0.04670  -0.04458  -2.11672
   D11       -0.00014   0.00001   0.00000   0.00008   0.00009  -0.00005
   D12        2.13905  -0.00440   0.00407  -0.09349  -0.08925   2.04980
   D13        2.07214   0.00220  -0.00204   0.04670   0.04458   2.11672
   D14       -2.13905   0.00440  -0.00407   0.09349   0.08925  -2.04980
   D15        0.00014  -0.00001   0.00000  -0.00008  -0.00009   0.00005
   D16        3.14159   0.00000   0.00000   0.00000   0.00000   3.14159
   D17        1.05638  -0.00045   0.00245  -0.02675  -0.02404   1.03233
   D18       -1.05638   0.00045  -0.00245   0.02675   0.02404  -1.03233
   D19        0.00000   0.00000   0.00000   0.00000   0.00000   0.00000
   D20       -2.10649   0.00026   0.00038   0.00058   0.00097  -2.10552
   D21        2.10649  -0.00026  -0.00038  -0.00058  -0.00097   2.10552
         Item               Value     Threshold  Converged?
 Maximum Force            0.016119     0.000450     NO 
 RMS     Force            0.004056     0.000300     NO 
 Maximum Displacement     0.158857     0.001800     NO 
 RMS     Displacement     0.060216     0.001200     NO 
 Predicted change in Energy=-2.819172D-03
 GradGradGradGradGradGradGradGradGradGradGradGradGradGradGradGradGradGrad

                          Input orientation:                          
 ---------------------------------------------------------------------
 Center     Atomic      Atomic             Coordinates (Angstroms)
 Number     Number       Type             X           Y           Z
 ---------------------------------------------------------------------
      1          8           0       -0.098752    0.000000   -0.044469
      2          6           0        0.002576    0.000000    1.382327
      3          6           0        1.472578    0.000000    1.858345
      4          8           0        2.391028    0.000000    0.761745
      5          6           0       -1.416486    0.000000   -0.605207
      6          6           0        3.787297    0.000000    1.079810
      7          1           0       -0.494512    0.877447    1.781669
      8          1           0       -0.494512   -0.877447    1.781669
      9          1           0        1.641281    0.877455    2.473224
     10          1           0        1.641281   -0.877455    2.473224
     11          1           0       -2.186715    0.000000    0.161636
     12          1           0       -1.527280    0.882963   -1.220701
     13          1           0       -1.527280   -0.882963   -1.220701
     14          1           0        3.961925    0.000000    2.152583
     15          1           0        4.237915    0.882955    0.646108
     16          1           0        4.237915   -0.882955    0.646108
 ---------------------------------------------------------------------
                    Distance matrix (angstroms):
                    1          2          3          4          5
     1  O    0.000000
     2  C    1.430389   0.000000
     3  C    2.467747   1.545153   0.000000
     4  O    2.617056   2.467757   1.430413   0.000000
     5  C    1.432079   2.442136   3.796812   4.045457   0.000000
     6  C    4.045415   3.796793   2.442139   1.432038   5.469794
     7  H    2.064296   1.084659   2.155281   3.183787   2.705019
     8  H    2.064296   1.084659   2.155281   3.183787   2.705019
     9  H    3.183774   2.155305   1.084650   2.064269   4.426805
    10  H    3.183774   2.155305   1.084650   2.064269   4.426805
    11  H    2.098111   2.506608   4.033516   4.616911   1.086877
    12  H    2.050327   3.145765   4.388542   4.479158   1.082003
    13  H    2.050327   3.145765   4.388542   4.479158   1.082003
    14  H    4.616940   4.033577   2.506677   2.098130   6.044230
    15  H    4.479195   4.388591   3.145826   2.050360   5.858127
    16  H    4.479195   4.388591   3.145826   2.050360   5.858127
                    6          7          8          9         10
     6  C    0.000000
     7  H    4.426784   0.000000
     8  H    4.426784   1.754895   0.000000
     9  H    2.704980   2.244964   2.849482   0.000000
    10  H    2.704980   2.849482   2.244964   1.754910   0.000000
    11  H    6.044160   2.501594   2.501594   4.557074   4.557074
    12  H    5.858047   3.175038   3.630410   4.866713   5.175320
    13  H    5.858047   3.630410   3.175038   5.175320   4.866713
    14  H    1.086893   4.557118   4.557118   2.501625   2.501625
    15  H    1.082018   4.866765   5.175363   3.175042   3.630414
    16  H    1.082018   5.175363   4.866765   3.630414   3.175042
                   11         12         13         14         15
    11  H    0.000000
    12  H    1.767861   0.000000
    13  H    1.767861   1.765925   0.000000
    14  H    6.462945   6.503080   6.503080   0.000000
    15  H    6.503092   6.059906   6.311966   1.767837   0.000000
    16  H    6.503092   6.311966   6.059906   1.767837   1.765910
                   16
    16  H    0.000000
 Stoichiometry    C4H10O2
 Framework group  CS[SG(C4H2O2),X(H8)]
 Deg. of freedom    25
 Full point group                 CS      NOp   2
 Largest Abelian subgroup         CS      NOp   2
 Largest concise Abelian subgroup CS      NOp   2
                         Standard orientation:                         
 ---------------------------------------------------------------------
 Center     Atomic      Atomic             Coordinates (Angstroms)
 Number     Number       Type             X           Y           Z
 ---------------------------------------------------------------------
      1          8           0        1.266684    0.529648    0.000000
      2          6           0        0.000000    1.194122    0.000000
      3          6           0       -1.178190    0.194439    0.000000
      4          8           0       -0.728822   -1.163556    0.000000
      5          6           0        2.436814    1.355268    0.000000
      6          6           0       -1.733895   -2.183635    0.000000
      7          1           0       -0.078087    1.826951    0.877447
      8          1           0       -0.078087    1.826951   -0.877447
      9          1           0       -1.789851    0.374461    0.877455
     10          1           0       -1.789851    0.374461   -0.877455
     11          1           0        2.189897    2.413726    0.000000
     12          1           0        3.018531    1.125675    0.882963
     13          1           0        3.018531    1.125675   -0.882963
     14          1           0       -2.738075   -1.767751    0.000000
     15          1           0       -1.602138   -2.795022    0.882955
     16          1           0       -1.602138   -2.795022   -0.882955
 ---------------------------------------------------------------------
 Rotational constants (GHZ):      9.6647342      1.5892656      1.4124897
 Standard basis: 6-31+G (6D, 7F)
 There are    72 symmetry adapted cartesian basis functions of A'  symmetry.
 There are    26 symmetry adapted cartesian basis functions of A"  symmetry.
 There are    72 symmetry adapted basis functions of A'  symmetry.
 There are    26 symmetry adapted basis functions of A"  symmetry.
    98 basis functions,   196 primitive gaussians,    98 cartesian basis functions
    25 alpha electrons       25 beta electrons
       nuclear repulsion energy       254.3526950165 Hartrees.
 NAtoms=   16 NActive=   16 NUniq=   12 SFac= 1.78D+00 NAtFMM=   60 NAOKFM=F Big=F
 Integral buffers will be    131072 words long.
 Raffenetti 1 integral format.
 Two-electron integral symmetry is turned on.
 One-electron integrals computed using PRISM.
 NBasis=    98 RedAO= T EigKep=  9.73D-05  NBF=    72    26
 NBsUse=    98 1.00D-06 EigRej= -1.00D+00 NBFU=    72    26
 Initial guess from the checkpoint file:  "g_0.chk"
 B after Tr=     0.000000    0.000000    0.000000
         Rot=    0.999958    0.000000    0.000000    0.009192 Ang=   1.05 deg.
 Initial guess orbital symmetries:
       Occupied  (A') (A') (A') (A') (A') (A') (A') (A') (A') (A')
                 (A') (A') (A") (A') (A') (A") (A') (A") (A') (A")
                 (A') (A') (A') (A") (A")
       Virtual   (A') (A') (A') (A') (A') (A') (A') (A') (A') (A')
                 (A') (A') (A') (A') (A') (A') (A') (A') (A') (A')
                 (A') (A') (A') (A') (A') (A') (A') (A') (A') (A')
                 (A') (A') (A') (A') (A') (A') (A') (A') (A') (A')
                 (A') (A') (A') (A') (A') (A') (A') (A') (A') (A')
                 (A') (A') (A') (A") (A") (A") (A") (A") (A") (A")
                 (A") (A") (A") (A") (A") (A") (A") (A") (A") (A")
                 (A") (A") (A")
 ExpMin= 4.38D-02 ExpMax= 5.48D+03 ExpMxC= 8.25D+02 IAcc=2 IRadAn=         4 AccDes= 0.00D+00
 Harris functional with IExCor=  205 and IRadAn=       4 diagonalized for initial guess.
 HarFok:  IExCor=  205 AccDes= 0.00D+00 IRadAn=         4 IDoV= 1 UseB2=F ITyADJ=14
 ICtDFT=  3500011 ScaDFX=  1.000000  1.000000  1.000000  1.000000
 FoFCou: FMM=F IPFlag=           0 FMFlag=      100000 FMFlg1=           0
         NFxFlg=           0 DoJE=T BraDBF=F KetDBF=T FulRan=T
         wScrn=  0.000000 ICntrl=     500 IOpCl=  0 I1Cent=   200000004 NGrid=           0
         NMat0=    1 NMatS0=      1 NMatT0=    0 NMatD0=    1 NMtDS0=    0 NMtDT0=    0
 Petite list used in FoFCou.
 Keep R1 ints in memory in symmetry-blocked form, NReq=18020200.
 Requested convergence on RMS density matrix=1.00D-08 within 128 cycles.
 Requested convergence on MAX density matrix=1.00D-06.
 Requested convergence on             energy=1.00D-06.
 No special actions if energy rises.
 SCF Done:  E(RHF) =  -306.821321129     A.U. after   10 cycles
            NFock= 10  Conv=0.51D-08     -V/T= 1.9997
 Calling FoFJK, ICntrl=      2127 FMM=F ISym2X=1 I1Cent= 0 IOpClX= 0 NMat=1 NMatS=1 NMatT=0.
 ***** Axes restored to original set *****
 -------------------------------------------------------------------
 Center     Atomic                   Forces (Hartrees/Bohr)
 Number     Number              X              Y              Z
 -------------------------------------------------------------------
      1        8          -0.000203590    0.000000000    0.007573460
      2        6           0.005318030    0.000000000   -0.004778747
      3        6          -0.001486847    0.000000000   -0.007010498
      4        8          -0.004292186    0.000000000    0.006250848
      5        6          -0.000979516    0.000000000   -0.000553703
      6        6           0.001163906    0.000000000    0.000140070
      7        1          -0.001552247    0.000489455   -0.001010706
      8        1          -0.001552247   -0.000489455   -0.001010706
      9        1           0.001844908    0.000490865    0.000098452
     10        1           0.001844908   -0.000490865    0.000098452
     11        1           0.001139065    0.000000000   -0.000655313
     12        1          -0.000083332   -0.000838857    0.000543590
     13        1          -0.000083332    0.000838857    0.000543590
     14        1          -0.000549582    0.000000000   -0.001204752
     15        1          -0.000263969   -0.000842719    0.000487980
     16        1          -0.000263969    0.000842719    0.000487980
 -------------------------------------------------------------------
 Cartesian Forces:  Max     0.007573460 RMS     0.002246243

 GradGradGradGradGradGradGradGradGradGradGradGradGradGradGradGradGradGrad
 Berny optimization.
 Using GEDIIS/GDIIS optimizer.
 FormGI is forming the generalized inverse of G from B-inverse, IUseBI=4.
 Internal  Forces:  Max     0.007424572 RMS     0.001557716
 Search for a local minimum.
 Step number   3 out of a maximum of   72
 All quantities printed in internal units (Hartrees-Bohrs-Radians)
 Mixed Optimization -- RFO/linear search
 Update second derivatives using D2CorX and points    1    2    3
 DE= -2.60D-03 DEPred=-2.82D-03 R= 9.23D-01
 TightC=F SS=  1.41D+00  RLast= 2.31D-01 DXNew= 8.4853D-01 6.9397D-01
 Trust test= 9.23D-01 RLast= 2.31D-01 DXMaxT set to 6.94D-01
 ITU=  1  1  0
 Use linear search instead of GDIIS.
     Eigenvalues ---    0.00338   0.01535   0.01541   0.01577   0.01584
     Eigenvalues ---    0.04918   0.04919   0.05945   0.06277   0.10218
     Eigenvalues ---    0.10220   0.10596   0.10654   0.11533   0.11540
     Eigenvalues ---    0.13934   0.13935   0.16000   0.16000   0.16000
     Eigenvalues ---    0.16000   0.16088   0.16314   0.22067   0.24127
     Eigenvalues ---    0.25000   0.26779   0.34692   0.36948   0.37230
     Eigenvalues ---    0.37230   0.37230   0.37230   0.37230   0.37230
     Eigenvalues ---    0.37230   0.37343   0.37566   0.43744   0.44254
     Eigenvalues ---    0.45720   0.49303
 RFO step:  Lambda=-4.75334212D-04 EMin= 3.38189598D-03
 Quartic linear search produced a step of -0.02459.
 Iteration  1 RMS(Cart)=  0.01100395 RMS(Int)=  0.00005630
 Iteration  2 RMS(Cart)=  0.00005495 RMS(Int)=  0.00003223
 Iteration  3 RMS(Cart)=  0.00000000 RMS(Int)=  0.00003223
 ClnCor:  largest displacement from symmetrization is 2.41D-09 for atom    11.
 Variable       Old X    -DE/DX   Delta X   Delta X   Delta X     New X
                                 (Linear)    (Quad)   (Total)
    R1        2.70304  -0.00742   0.00007  -0.01610  -0.01603   2.68701
    R2        2.70624   0.00005   0.00001   0.00055   0.00056   2.70680
    R3        2.91992  -0.00211   0.00109  -0.01051  -0.00942   2.91050
    R4        2.04971   0.00074  -0.00022   0.00297   0.00275   2.05246
    R5        2.04971   0.00074  -0.00022   0.00297   0.00275   2.05246
    R6        2.70309  -0.00742   0.00008  -0.01617  -0.01609   2.68700
    R7        2.04969   0.00074  -0.00022   0.00298   0.00277   2.05246
    R8        2.04969   0.00074  -0.00022   0.00298   0.00277   2.05246
    R9        2.70616   0.00006   0.00001   0.00060   0.00061   2.70677
   R10        2.05390  -0.00127  -0.00020  -0.00219  -0.00240   2.05150
   R11        2.04469  -0.00099  -0.00010  -0.00192  -0.00202   2.04267
   R12        2.04469  -0.00099  -0.00010  -0.00192  -0.00202   2.04267
   R13        2.05393  -0.00128  -0.00020  -0.00221  -0.00241   2.05152
   R14        2.04472  -0.00099  -0.00010  -0.00194  -0.00204   2.04267
   R15        2.04472  -0.00099  -0.00010  -0.00194  -0.00204   2.04267
    A1        2.04402  -0.00082   0.00010  -0.00264  -0.00254   2.04148
    A2        1.95486   0.00068   0.00070   0.00138   0.00207   1.95693
    A3        1.91217  -0.00140  -0.00110  -0.00729  -0.00843   1.90374
    A4        1.91217  -0.00140  -0.00110  -0.00729  -0.00843   1.90374
    A5        1.89925   0.00132  -0.00022   0.01304   0.01279   1.91204
    A6        1.89925   0.00132  -0.00022   0.01304   0.01279   1.91204
    A7        1.88477  -0.00054   0.00204  -0.01323  -0.01132   1.87345
    A8        1.95485   0.00068   0.00070   0.00139   0.00208   1.95693
    A9        1.89929   0.00132  -0.00022   0.01299   0.01274   1.91203
   A10        1.89929   0.00132  -0.00022   0.01299   0.01274   1.91203
   A11        1.91211  -0.00139  -0.00111  -0.00723  -0.00837   1.90374
   A12        1.91211  -0.00139  -0.00111  -0.00723  -0.00837   1.90374
   A13        1.88482  -0.00054   0.00204  -0.01327  -0.01136   1.87345
   A14        2.04404  -0.00083   0.00010  -0.00268  -0.00257   2.04147
   A15        1.95608  -0.00067   0.00016  -0.00422  -0.00406   1.95202
   A16        1.89332   0.00035   0.00025   0.00113   0.00139   1.89470
   A17        1.89332   0.00035   0.00025   0.00113   0.00139   1.89470
   A18        1.90581   0.00003  -0.00020   0.00050   0.00031   1.90612
   A19        1.90581   0.00003  -0.00020   0.00050   0.00031   1.90612
   A20        1.90907  -0.00008  -0.00028   0.00105   0.00077   1.90983
   A21        1.95614  -0.00068   0.00016  -0.00428  -0.00412   1.95202
   A22        1.89340   0.00034   0.00025   0.00106   0.00131   1.89471
   A23        1.89340   0.00034   0.00025   0.00106   0.00131   1.89471
   A24        1.90573   0.00004  -0.00020   0.00058   0.00038   1.90611
   A25        1.90573   0.00004  -0.00020   0.00058   0.00038   1.90611
   A26        1.90900  -0.00007  -0.00028   0.00111   0.00083   1.90983
    D1        3.14159   0.00000   0.00000   0.00000   0.00000   3.14159
    D2       -1.03234   0.00116  -0.00059   0.01238   0.01172  -1.02062
    D3        1.03234  -0.00116   0.00059  -0.01238  -0.01172   1.02062
    D4        0.00000   0.00000   0.00000   0.00000   0.00000   0.00000
    D5        2.10553  -0.00015   0.00002  -0.00127  -0.00124   2.10428
    D6       -2.10553   0.00015  -0.00002   0.00127   0.00124  -2.10428
    D7        0.00000   0.00000   0.00000   0.00000   0.00000   0.00000
    D8        2.11667  -0.00042  -0.00110   0.00065  -0.00046   2.11620
    D9       -2.11667   0.00042   0.00110  -0.00065   0.00046  -2.11620
   D10       -2.11672   0.00042   0.00110  -0.00060   0.00051  -2.11621
   D11       -0.00005   0.00000   0.00000   0.00005   0.00005   0.00000
   D12        2.04980   0.00084   0.00219  -0.00124   0.00098   2.05078
   D13        2.11672  -0.00042  -0.00110   0.00060  -0.00051   2.11621
   D14       -2.04980  -0.00084  -0.00219   0.00124  -0.00098  -2.05078
   D15        0.00005   0.00000   0.00000  -0.00005  -0.00005   0.00000
   D16        3.14159   0.00000   0.00000   0.00000   0.00000   3.14159
   D17        1.03233  -0.00115   0.00059  -0.01237  -0.01171   1.02063
   D18       -1.03233   0.00115  -0.00059   0.01237   0.01171  -1.02063
   D19        0.00000   0.00000   0.00000   0.00000   0.00000   0.00000
   D20       -2.10552   0.00015  -0.00002   0.00126   0.00124  -2.10428
   D21        2.10552  -0.00015   0.00002  -0.00126  -0.00124   2.10428
         Item               Value     Threshold  Converged?
 Maximum Force            0.007425     0.000450     NO 
 RMS     Force            0.001558     0.000300     NO 
 Maximum Displacement     0.027395     0.001800     NO 
 RMS     Displacement     0.011028     0.001200     NO 
 Predicted change in Energy=-2.394151D-04
 GradGradGradGradGradGradGradGradGradGradGradGradGradGradGradGradGradGrad

                          Input orientation:                          
 ---------------------------------------------------------------------
 Center     Atomic      Atomic             Coordinates (Angstroms)
 Number     Number       Type             X           Y           Z
 ---------------------------------------------------------------------
      1          8           0       -0.095775    0.000000   -0.044111
      2          6           0        0.007913    0.000000    1.374010
      3          6           0        1.473182    0.000000    1.848470
      4          8           0        2.388413    0.000000    0.760285
      5          6           0       -1.416363    0.000000   -0.598859
      6          6           0        3.783505    0.000000    1.084896
      7          1           0       -0.501450    0.874998    1.767172
      8          1           0       -0.501450   -0.874998    1.767172
      9          1           0        1.655412    0.874998    2.465570
     10          1           0        1.655412   -0.874998    2.465570
     11          1           0       -2.179009    0.000000    0.173746
     12          1           0       -1.531721    0.882328   -1.212540
     13          1           0       -1.531721   -0.882328   -1.212540
     14          1           0        3.948535    0.000000    2.157895
     15          1           0        4.236687    0.882331    0.655314
     16          1           0        4.236687   -0.882331    0.655314
 ---------------------------------------------------------------------
                    Distance matrix (angstroms):
                    1          2          3          4          5
     1  O    0.000000
     2  C    1.421907   0.000000
     3  C    2.458351   1.540170   0.000000
     4  O    2.611177   2.458341   1.421899   0.000000
     5  C    1.432375   2.433264   3.786673   4.040247   0.000000
     6  C    4.040232   3.786646   2.433237   1.432360   5.465681
     7  H    2.052057   1.086116   2.161342   3.182884   2.683428
     8  H    2.052057   1.086116   2.161342   3.182884   2.683428
     9  H    3.182888   2.161337   1.086113   2.052050   4.426302
    10  H    3.182888   2.161337   1.086113   2.052050   4.426302
    11  H    2.094595   2.494647   4.017860   4.604930   1.085609
    12  H    2.050773   3.136752   4.379238   4.476382   1.080933
    13  H    2.050773   3.136752   4.379238   4.476382   1.080933
    14  H    4.604919   4.017833   2.494618   2.094587   6.031735
    15  H    4.476375   4.379220   3.136733   2.050767   5.857341
    16  H    4.476375   4.379220   3.136733   2.050767   5.857341
                    6          7          8          9         10
     6  C    0.000000
     7  H    4.426281   0.000000
     8  H    4.426281   1.749995   0.000000
     9  H    2.683405   2.267116   2.863966   0.000000
    10  H    2.683405   2.863966   2.267116   1.749997   0.000000
    11  H    6.031731   2.473627   2.473627   4.552018   4.552018
    12  H    5.857333   3.152807   3.609478   4.866864   5.174409
    13  H    5.857333   3.609478   3.152807   5.174409   4.866864
    14  H    1.085616   4.551994   4.551994   2.473600   2.473600
    15  H    1.080936   4.866850   5.174396   3.152786   3.609462
    16  H    1.080936   5.174396   4.866850   3.609462   3.152786
                   11         12         13         14         15
    11  H    0.000000
    12  H    1.766147   0.000000
    13  H    1.766147   1.764657   0.000000
    14  H    6.440780   6.493962   6.493962   0.000000
    15  H    6.493965   6.063284   6.314858   1.766151   0.000000
    16  H    6.493965   6.314858   6.063284   1.766151   1.764663
                   16
    16  H    0.000000
 Stoichiometry    C4H10O2
 Framework group  CS[SG(C4H2O2),X(H8)]
 Deg. of freedom    25
 Full point group                 CS      NOp   2
 Largest Abelian subgroup         CS      NOp   2
 Largest concise Abelian subgroup CS      NOp   2
                         Standard orientation:                         
 ---------------------------------------------------------------------
 Center     Atomic      Atomic             Coordinates (Angstroms)
 Number     Number       Type             X           Y           Z
 ---------------------------------------------------------------------
      1          8           0        1.262598    0.531926    0.000000
      2          6           0        0.000000    1.185886    0.000000
      3          6           0       -1.171256    0.185744    0.000000
      4          8           0       -0.723132   -1.163693    0.000000
      5          6           0        2.426532    1.366765    0.000000
      6          6           0       -1.729974   -2.182478    0.000000
      7          1           0       -0.068374    1.825692    0.874998
      8          1           0       -0.068374    1.825692   -0.874998
      9          1           0       -1.792450    0.353491    0.874998
     10          1           0       -1.792450    0.353491   -0.874998
     11          1           0        2.167430    2.421001    0.000000
     12          1           0        3.009808    1.143828    0.882328
     13          1           0        3.009808    1.143828   -0.882328
     14          1           0       -2.730617   -1.761437    0.000000
     15          1           0       -1.601161   -2.793478    0.882331
     16          1           0       -1.601161   -2.793478   -0.882331
 ---------------------------------------------------------------------
 Rotational constants (GHZ):      9.8115262      1.5924298      1.4179213
 Standard basis: 6-31+G (6D, 7F)
 There are    72 symmetry adapted cartesian basis functions of A'  symmetry.
 There are    26 symmetry adapted cartesian basis functions of A"  symmetry.
 There are    72 symmetry adapted basis functions of A'  symmetry.
 There are    26 symmetry adapted basis functions of A"  symmetry.
    98 basis functions,   196 primitive gaussians,    98 cartesian basis functions
    25 alpha electrons       25 beta electrons
       nuclear repulsion energy       254.9489608609 Hartrees.
 NAtoms=   16 NActive=   16 NUniq=   12 SFac= 1.78D+00 NAtFMM=   60 NAOKFM=F Big=F
 Integral buffers will be    131072 words long.
 Raffenetti 1 integral format.
 Two-electron integral symmetry is turned on.
 One-electron integrals computed using PRISM.
 NBasis=    98 RedAO= T EigKep=  9.31D-05  NBF=    72    26
 NBsUse=    98 1.00D-06 EigRej= -1.00D+00 NBFU=    72    26
 Initial guess from the checkpoint file:  "g_0.chk"
 B after Tr=     0.000000    0.000000    0.000000
         Rot=    0.999999    0.000000    0.000000   -0.001563 Ang=  -0.18 deg.
 Initial guess orbital symmetries:
       Occupied  (A') (A') (A') (A') (A') (A') (A') (A') (A') (A')
                 (A') (A') (A") (A') (A') (A") (A') (A") (A') (A")
                 (A') (A') (A') (A") (A")
       Virtual   (A') (A') (A') (A') (A') (A') (A') (A') (A') (A')
                 (A') (A') (A') (A') (A') (A') (A') (A') (A') (A')
                 (A') (A') (A') (A') (A') (A') (A') (A') (A') (A')
                 (A') (A') (A') (A') (A') (A') (A') (A') (A') (A')
                 (A') (A') (A') (A') (A') (A') (A') (A') (A') (A')
                 (A') (A') (A') (A") (A") (A") (A") (A") (A") (A")
                 (A") (A") (A") (A") (A") (A") (A") (A") (A") (A")
                 (A") (A") (A")
 ExpMin= 4.38D-02 ExpMax= 5.48D+03 ExpMxC= 8.25D+02 IAcc=2 IRadAn=         4 AccDes= 0.00D+00
 Harris functional with IExCor=  205 and IRadAn=       4 diagonalized for initial guess.
 HarFok:  IExCor=  205 AccDes= 0.00D+00 IRadAn=         4 IDoV= 1 UseB2=F ITyADJ=14
 ICtDFT=  3500011 ScaDFX=  1.000000  1.000000  1.000000  1.000000
 FoFCou: FMM=F IPFlag=           0 FMFlag=      100000 FMFlg1=           0
         NFxFlg=           0 DoJE=T BraDBF=F KetDBF=T FulRan=T
         wScrn=  0.000000 ICntrl=     500 IOpCl=  0 I1Cent=   200000004 NGrid=           0
         NMat0=    1 NMatS0=      1 NMatT0=    0 NMatD0=    1 NMtDS0=    0 NMtDT0=    0
 Petite list used in FoFCou.
 Keep R1 ints in memory in symmetry-blocked form, NReq=18020200.
 Requested convergence on RMS density matrix=1.00D-08 within 128 cycles.
 Requested convergence on MAX density matrix=1.00D-06.
[...]
 ! D14   D(8,2,3,9)           -117.5235         -DE/DX =    0.0                 !
 ! D15   D(8,2,3,10)             0.0            -DE/DX =    0.0                 !
 ! D16   D(2,3,4,6)            180.0            -DE/DX =    0.0                 !
 ! D17   D(9,3,4,6)             58.6903         -DE/DX =    0.0                 !
 ! D18   D(10,3,4,6)           -58.6903         -DE/DX =    0.0                 !
 ! D19   D(3,4,6,14)             0.0            -DE/DX =    0.0                 !
 ! D20   D(3,4,6,15)          -120.5766         -DE/DX =    0.0                 !
 ! D21   D(3,4,6,16)           120.5766         -DE/DX =    0.0                 !
 --------------------------------------------------------------------------------
 GradGradGradGradGradGradGradGradGradGradGradGradGradGradGradGradGradGrad

 1\1\GINC-C9A-S19\Freq\RHF\6-31+G\C4H10O2\ROOT\05-Jan-2016\0\\#N Geom=A
 llCheck Guess=TCheck SCRF=Check GenChk RHF/6-31+G Freq\\Title Card Req
 uired\\0,1\O,-0.0961677554,0.,-0.0426864521\C,0.0083851581,0.,1.374347
 7006\C,1.4725870321,0.,1.8484667695\O,2.3878958748,0.,0.7616720839\C,-
 1.4156556893,0.,-0.5991048951\C,3.7830901338,0.,1.0842827255\H,-0.4971
 460054,0.8766959961,1.7695816455\H,-0.4971460054,-0.8766959961,1.76958
 16455\H,1.6504996379,0.8766959196,2.4650049945\H,1.6504996379,-0.87669
 59196,2.4650049945\H,-2.1788528536,0.,0.1722210817\H,-1.5302091831,0.8
 818903659,-1.2129081553\H,-1.5302091831,-0.8818903659,-1.2129081553\H,
 3.9493187127,0.,2.1565617332\H,4.2356846558,0.8818903048,0.6541251702\
 H,4.2356846558,-0.8818903048,0.6541251702\\Version=AS64L-G09RevD.01\St
 ate=1-A'\HF=-306.8215544\RMSD=4.547e-10\RMSF=3.872e-05\ZeroPoint=0.150
 3048\Thermal=0.1564427\Dipole=-0.361235,0.,1.1155845\DipoleDeriv=-0.89
 56094,0.,-0.4203726,0.,-0.5370642,0.,-0.4217757,0.,-1.0490852,0.427439
 1,0.,0.0426372,0.,0.506885,0.,0.1552562,0.,0.8028987,0.6504198,0.,-0.1
 529521,0.,0.5068868,0.,-0.2655714,0.,0.5799219,-1.3482824,0.,0.2039169
 ,0.,-0.5370643,0.,0.2053198,0.,-0.5964187,0.7480121,0.,0.3714967,0.,0.
 4171177,0.,0.2287039,0.,0.511925,0.9519373,0.,-0.0531636,0.,0.417119,0
 .,0.0896289,0.,0.3080044,-0.0668752,0.087567,0.041787,0.1141961,-0.129
 9514,-0.0925304,-0.0112975,-0.0522226,-0.0679095,-0.0668752,-0.087567,
 0.041787,-0.1141961,-0.1299514,0.0925304,-0.0112975,0.0522226,-0.06790
 95,-0.0527512,-0.0403363,-0.0308207,-0.0382843,-0.129952,-0.1419049,0.
 022264,-0.0936388,-0.0820341,-0.0527512,0.0403363,-0.0308207,0.0382843
 ,-0.129952,0.1419049,0.022264,0.0936388,-0.0820341,-0.1262882,0.,0.018
 7975,0.,0.0648337,0.,0.1487408,0.,-0.1007177,0.0048718,-0.0104179,-0.0
 609714,0.0524379,-0.0959348,0.1334559,-0.0721003,0.0820871,-0.0293741,
 0.0048718,0.0104179,-0.0609714,-0.0524379,-0.0959348,-0.1334559,-0.072
 1003,-0.0820871,-0.0293741,-0.0379385,0.,0.026621,0.,0.0648336,0.,-0.1
 033226,0.,-0.1890683,-0.0700903,-0.0396751,0.0315147,-0.1207111,-0.095
 9354,0.0773896,0.0426438,0.0726137,0.0455877,-0.0700903,0.0396751,0.03
 15147,0.1207111,-0.0959354,-0.0773896,0.0426438,-0.0726137,0.0455877\P
 olar=59.7942689,0.,45.368094,2.8503119,0.,51.9148035\PolarDeriv=9.9825
 282,0.0000001,-0.3855793,3.6953222,0.,2.4900496,0.0000003,1.0732067,-0
 .0000002,0.,-0.5933329,0.0000001,0.6244599,-0.0000002,0.5035194,-0.955
 9318,0.,-6.2123085,-7.0181244,0.,2.751632,-3.9557777,0.,-0.343845,0.00
 00004,3.7580408,0.,-0.0000001,-2.810612,-0.0000001,-0.0955688,-0.00000
 02,-3.8212148,3.4926326,-0.0000003,4.069686,4.1450207,-0.0000001,0.010
 4546,3.3652838,0.,-0.5097661,-0.0000002,-1.3973017,-0.0000001,0.000000
 2,-4.4799699,0.,8.7415805,0.0000003,-4.7088434,-1.3553848,0.0000002,-1
 .2065638,-7.3027836,0.,0.0172601,-4.0245857,0.,0.4728961,0.0000003,-0.
 5217255,-0.0000001,0.,-1.1097684,0.0000002,-8.5324368,0.0000002,0.6339
 72,1.4648241,0.,-3.3055734,-4.503029,-0.0000001,1.2069949,-5.5141724,0
 .0000001,-0.8348536,-0.0000004,1.8572898,0.0000004,-0.0000002,5.133616
 4,-0.0000002,-5.6450291,0.,5.2296019,1.318469,0.,0.5082049,8.2060904,0
 .,-4.0432732,1.9683283,0.,-0.8705178,-0.0000005,-4.5138829,0.0000004,0
 .0000002,3.0706021,0.,3.1244529,0.,3.5295445,-2.6918489,0.,-4.1575477,
 -2.254922,2.3080235,-1.8159924,1.4804002,-0.4912583,-0.5250185,2.00912
 32,-2.5623202,5.1038862,-0.4299078,2.2172917,1.8679073,0.0688642,-0.39
 64994,1.3899326,-1.3642567,2.2162054,2.2663747,-2.254922,-2.3080235,-1
 .8159924,1.4804002,0.4912583,-0.5250185,-2.0091232,-2.5623202,-5.10388
 62,0.4299078,2.2172917,-1.8679073,0.0688642,0.3964994,1.3899326,-1.364
 2567,-2.2162054,2.2663747,0.4827839,1.8548813,0.6566029,1.4023849,0.22
 98509,0.400714,1.5522789,0.7763156,5.1038906,0.2015611,3.2983721,2.324
 7573,-0.2331632,0.135092,2.1905794,0.2532842,2.6693548,3.754664,0.4827
 839,-1.8548813,0.6566029,1.4023849,-0.2298509,0.400714,-1.5522789,0.77
 63156,-5.1038906,-0.2015611,3.2983721,-2.3247573,-0.2331632,-0.135092,
 2.1905794,0.2532842,-2.6693548,3.754664,-6.4142825,0.,-0.2793003,2.296
 7112,0.,-0.9896416,-0.0000003,-1.6367306,0.,0.,0.2505099,0.0000001,3.1
 000896,0.,0.1441997,-2.0310915,0.,3.5172847,-0.8206563,1.9493664,-0.27
 37622,-1.3233081,0.7266162,-0.4868941,1.2857921,-1.4938485,5.4932502,0
 .9700848,-3.7028936,2.6591565,-0.2728561,0.6543961,-2.5613948,-1.54103
 47,2.7711857,-4.5548726,-0.8206563,-1.9493664,-0.2737622,-1.3233081,-0
 .7266162,-0.4868941,-1.2857921,-1.4938485,-5.4932502,-0.9700848,-3.702
 8936,-2.6591565,-0.2728561,-0.6543961,-2.5613948,-1.5410347,-2.7711857
 ,-4.5548726,1.149073,0.0000001,0.1417655,2.4130443,0.,0.9708149,0.,1.1
 792449,0.,-0.0000002,1.1623396,0.,2.4534877,0.,0.2805417,2.2854998,0.,
 7.2477566,3.4705482,2.8875718,1.7231748,-1.6815541,-0.6424185,0.418630
 1,2.6790344,3.3807824,5.4932533,-0.9557018,-2.1244628,1.2659123,-1.448
 3624,-0.5701969,-1.9147781,1.8884229,1.8329846,-1.6966354,3.4705482,-2
 .8875718,1.7231748,-1.6815541,0.6424185,0.4186301,-2.6790344,3.3807824
 ,-5.4932533,0.9557018,-2.1244628,-1.2659123,-1.4483624,0.5701969,-1.91
 47781,1.8884229,-1.8329846,-1.6966354\HyperPolar=-14.1609948,0.,-5.611
 5436,0.,18.8956211,0.,17.3301933,-24.0249409,0.,99.0324814\PG=CS [SG(C
 4H2O2),X(H8)]\NImag=3\\0.40232654,0.,0.07479171,0.11328133,0.,0.489591
 24,-0.09920583,0.,0.02902602,0.59863803,0.,-0.05634485,0.,0.,0.6500483
 5,-0.02714165,0.,-0.25675652,-0.01707631,0.,0.54582801,-0.00076316,0.,
 -0.00447341,-0.20016661,0.,-0.04218402,0.56427576,0.,-0.00220402,0.,0.
 ,-0.09649430,0.,0.,0.65004728,-0.04192108,0.,-0.01721841,-0.03090176,0
 .,-0.09914566,0.03042036,0.,0.58019252,-0.00350720,0.,-0.00145100,-0.0
 2844985,0.,0.03379576,-0.15244294,0.,0.10261159,0.53990861,0.,0.004651
 64,0.,0.,-0.00220399,0.,0.,-0.05634465,0.,0.,0.07479120,-0.00215722,0.
 ,0.00148010,-0.00365199,0.,0.01046804,0.04644380,0.,-0.20352190,-0.076
 88309,0.,0.35201535,-0.21973938,0.,-0.08076216,-0.00940097,0.,-0.00724
 585,-0.00120472,0.,0.00313744,0.00228744,0.,-0.00031046,0.51724201,0.,
 -0.05746728,0.,0.,-0.00868414,0.,0.,0.00150396,0.,0.,-0.00052572,0.,0.
 ,0.64673385,-0.03102966,0.,-0.12080974,-0.04552683,0.,-0.02055815,0.00
 186023,0.,-0.00603976,0.00334834,0.,0.00086523,-0.04658560,0.,0.654936
 46,0.00324149,0.,0.00202963,-0.00049253,0.,0.00087583,-0.03829623,0.,-
 0.00558712,-0.23884266,0.,-0.00462902,-0.00162484,0.,-0.00110442,0.520
 30660,0.,-0.00052572,0.,0.,0.00150397,0.,0.,-0.00868418,0.,0.,-0.05746
 715,0.,0.,0.00024224,0.,0.,0.64673316,-0.00162917,0.,-0.00008883,0.002
 15302,0.,-0.00675194,0.03269404,0.,0.00833699,-0.05436169,0.,-0.101709
 45,-0.00036487,0.,0.00040607,-0.05081626,0.,0.65187428,0.00417498,-0.0
 0148346,-0.00141263,-0.11980077,0.09556528,0.04064244,-0.01708991,0.03
 159787,0.01046988,-0.00427579,-0.00031121,-0.00192682,0.00147607,-0.00
 115872,-0.00040672,0.00034940,-0.00002080,0.00088813,0.12871683,-0.000
 73014,0.00866970,-0.00416122,0.09976400,-0.24646124,-0.07006515,-0.004
 78956,0.00175282,-0.00035055,-0.00000843,0.00026109,0.00012350,0.00109
 846,0.00070059,0.00014960,-0.00038613,-0.00015200,-0.00000446,-0.10859
 053,0.26040975,0.01586104,-0.03377116,-0.04271927,0.03899376,-0.066723
 94,-0.08436333,-0.00717937,0.00441283,0.00419253,-0.00120611,0.0009111
 1,-0.00030141,0.00533296,-0.00163570,0.00218175,0.00009789,0.00001149,
 0.00037800,-0.04229156,0.08442669,0.11011643,0.00417498,0.00148346,-0.
 00141263,-0.11980077,-0.09556528,0.04064244,-0.01708991,-0.03159787,0.
 01046988,-0.00427579,0.00031121,-0.00192682,0.00147607,0.00115872,-0.0
 0040672,0.00034940,0.00002080,0.00088812,0.00923348,0.01528784,-0.0053
 0815,0.12871683,0.00073014,0.00866970,0.00416122,-0.09976400,-0.246461
 24,0.07006515,0.00478956,0.00175283,0.00035056,0.00000843,0.00026109,-
 0.00012350,-0.00109845,0.00070059,-0.00014960,0.00038613,-0.00015200,0
 .00000446,-0.01528784,-0.02831528,0.01087181,0.10859053,0.26040975,0.0
 1586104,0.03377116,-0.04271927,0.03899376,0.06672394,-0.08436333,-0.00
 717937,-0.00441283,0.00419253,-0.00120611,-0.00091111,-0.00030141,0.00
 533296,0.00163570,0.00218175,0.00009789,-0.00001149,0.00037800,-0.0053
 0815,-0.01087181,0.00888118,-0.04229156,-0.08442669,0.11011643,-0.0043
 9811,-0.00028191,-0.00103701,-0.00821505,-0.02818714,-0.01944639,-0.06
 980595,-0.03831627,-0.03011050,-0.00507522,0.02099708,0.02864701,0.000
 82749,0.00001012,-0.00056294,0.00405803,0.00189756,0.00176413,0.001015
 00,-0.00002018,-0.00146404,-0.00391388,-0.00033980,-0.00021050,0.08215
 744,-0.00006555,0.00026109,0.00010500,0.00408597,0.00175282,0.00252341
 ,-0.03975957,-0.24646077,-0.11524359,0.00303071,0.00866971,-0.00294350
 ,0.00031546,-0.00015200,0.00022272,-0.00097766,0.00070059,-0.00052266,
 -0.00054109,0.00254940,0.00078233,-0.00015976,0.00122466,-0.00035888,0
 .03849271,0.26040932,-0.00175774,0.00092060,-0.00017908,-0.00179715,-0
 .01494595,-0.00468232,-0.02846179,-0.11007540,-0.13435814,0.01137332,-
 0.02649189,-0.03346914,0.00022730,0.00002150,-0.00010009,-0.00397556,-
 0.00064606,-0.00040019,0.00085006,0.00095101,0.00186365,-0.00208783,0.
 00019712,-0.00073707,0.02206397,0.13205305,0.15667582,-0.00439811,0.00
 028191,-0.00103701,-0.00821505,0.02818714,-0.01944639,-0.06980595,0.03
 831627,-0.03011050,-0.00507522,-0.02099708,0.02864700,0.00082749,-0.00
 001012,-0.00056294,0.00405803,-0.00189756,0.00176413,-0.00391388,0.000
 33980,-0.00021050,0.00101500,0.00002018,-0.00146404,0.00407074,-0.0060
 1362,0.00182793,0.08215744,0.00006555,0.00026109,-0.00010500,-0.004085
 97,0.00175282,-0.00252340,0.03975957,-0.24646077,0.11524359,-0.0030307
 1,0.00866971,0.00294351,-0.00031546,-0.00015200,-0.00022272,0.00097766
 ,0.00070059,0.00052266,0.00015976,0.00122466,0.00035888,0.00054109,0.0
 0254940,-0.00078233,0.00601362,-0.02831534,0.01776935,-0.03849271,0.26
 040932,-0.00175774,-0.00092060,-0.00017908,-0.00179715,0.01494595,-0.0
 0468232,-0.02846179,0.11007540,-0.13435814,0.01137332,0.02649189,-0.03
 346914,0.00022730,-0.00002150,-0.00010009,-0.00397556,0.00064606,-0.00
 040019,-0.00208783,-0.00019712,-0.00073707,0.00085006,-0.00095101,0.00
 186365,0.00182793,-0.01776935,0.01404391,0.02206397,-0.13205305,0.1566
 7582,-0.04235309,0.,0.01653547,0.00225570,0.,0.00794969,0.00031160,0.,
 0.00042930,-0.00046158,0.,-0.00033285,-0.18232227,0.,0.12803634,0.0003
 6853,0.,-0.00022171,0.00022426,-0.00106795,-0.00140814,0.00022426,0.00
 106795,-0.00140814,0.00001245,-0.00003373,-0.00004554,0.00001245,0.000
 03373,-0.00004554,0.21309607,0.,0.00039110,0.,0.,0.00275821,0.,0.,-0.0
 0016566,0.,0.,0.00001188,0.,0.,-0.06421908,0.,0.,0.00000887,0.,-0.0001
 1848,-0.00027079,0.00010170,0.00011848,-0.00027079,-0.00010170,-0.0000
 1381,-0.00001641,-0.00003554,0.00001381,-0.00001641,0.00003554,0.,0.05
 611041,-0.01787328,0.,0.01137101,-0.00362822,0.,0.00228238,-0.00005117
 ,0.,0.00028623,-0.00032954,0.,0.00000969,0.13878288,0.,-0.21205793,-0.
 00000942,0.,-0.00008813,0.00014839,0.00002935,0.00080868,0.00014839,-0
 .00002935,0.00080868,0.00004325,0.00000505,0.00000539,0.00004325,-0.00
 000505,0.00000539,-0.14701647,0.,0.22516371,-0.01926349,0.02614111,-0.
 03420766,-0.00375652,0.00408775,0.00308247,0.00064993,0.00002456,-0.00
 104003,-0.00022774,-0.00016933,0.00019359,-0.05524270,0.01468229,-0.00
 391384,0.00025307,-0.00000512,-0.00001157,0.00057645,-0.00065826,0.000
 07406,-0.00006655,0.00035258,-0.00117045,-0.00025043,-0.00002536,-0.00
 010306,-0.00024471,0.00003555,-0.00004933,0.00442732,-0.02256301,0.014
 89560,0.06987346,0.00212388,0.00931302,-0.00095910,-0.00072394,-0.0003
 5566,-0.00166635,-0.00021749,-0.00014471,-0.00002037,0.00035634,0.0001
 0396,-0.00004401,0.01855328,-0.25930898,0.13256676,-0.00016134,-0.0000
 3596,-0.00001519,0.00011844,-0.00023290,0.00025233,-0.00000932,-0.0001
 4668,-0.00000371,0.00004302,0.00003393,0.00001537,0.00007779,-0.000006
 65,0.00001754,0.00004937,0.00283955,-0.00203197,-0.02109554,0.27353238
 ,-0.00997048,0.01131477,-0.01099213,-0.00242843,0.00178433,0.00112269,
 0.00040010,-0.00016238,-0.00052559,-0.00034624,-0.00012358,0.00004669,
 -0.00892501,0.12935700,-0.15052811,0.00022752,0.00003220,0.00000259,0.
 00011635,-0.00022851,-0.00031494,0.00032721,-0.00019436,0.00005511,-0.
 00020559,-0.00003525,-0.00012106,-0.00014824,0.00003292,-0.00006251,-0
 .00120020,0.02470841,-0.01428625,0.02061331,-0.14730286,0.16144970,-0.
 01926349,-0.02614111,-0.03420766,-0.00375652,-0.00408775,0.00308247,0.
 00064993,-0.00002456,-0.00104003,-0.00022774,0.00016933,0.00019359,-0.
 05524270,-0.01468229,-0.00391384,0.00025307,0.00000512,-0.00001157,-0.
 00006655,-0.00035258,-0.00117045,0.00057645,0.00065826,0.00007406,-0.0
 0024471,-0.00003555,-0.00004933,-0.00025043,0.00002536,-0.00010306,0.0
 0442732,0.02256301,0.01489560,0.00340646,0.00080121,0.00164481,0.06987
 346,-0.00212388,0.00931302,0.00095910,0.00072394,-0.00035566,0.0016663
 5,0.00021749,-0.00014471,0.00002037,-0.00035634,0.00010396,0.00004401,
 -0.01855328,-0.25930898,-0.13256677,0.00016134,-0.00003596,0.00001519,
 0.00000932,-0.00014668,0.00000371,-0.00011844,-0.00023290,-0.00025233,
 -0.00007779,-0.00000665,-0.00001754,-0.00004302,0.00003393,-0.00001537
 ,-0.00004937,0.00283955,0.00203197,-0.00080121,-0.02560006,-0.01917606
 ,0.02109554,0.27353238,-0.00997048,-0.01131477,-0.01099213,-0.00242843
 ,-0.00178433,0.00112269,0.00040010,0.00016238,-0.00052559,-0.00034624,
 0.00012358,0.00004669,-0.00892501,-0.12935700,-0.15052811,0.00022752,-
 0.00003220,0.00000259,0.00032721,0.00019436,0.00005511,0.00011635,0.00
 022851,-0.00031494,-0.00014824,-0.00003292,-0.00006251,-0.00020559,0.0
 0003525,-0.00012106,-0.00120020,-0.02470841,-0.01428625,0.00164481,0.0
 1917606,0.01414858,0.02061331,0.14730286,0.16144970,-0.00061423,0.,-0.
 00011854,0.00048246,0.,-0.00028733,0.00431718,0.,-0.00647761,-0.024530
 20,0.,-0.04250888,0.00010187,0.,0.00035917,-0.06582606,0.,-0.02224237,
 0.00000893,0.00002437,0.00004811,0.00000893,-0.00002437,0.00004811,-0.
 00017320,0.00084805,0.00069778,-0.00017320,-0.00084805,0.00069778,-0.0
 0016205,0.,-0.00004067,-0.00002484,0.00002373,-0.00001208,-0.00002484,
 -0.00002373,-0.00001208,0.07760573,0.,0.00001188,0.,0.,-0.00016566,0.,
 0.,0.00275821,0.,0.,0.00039111,0.,0.,0.00000887,0.,0.,-0.06421910,0.,0
 .00003202,-0.00001641,-0.00002070,-0.00003202,-0.00001641,0.00002070,0
 .00003637,-0.00027079,0.00015184,-0.00003637,-0.00027079,-0.00015184,0
 .,-0.00000146,0.,0.00000108,0.00000051,-0.00000101,-0.00000108,0.00000
 051,0.00000101,0.,0.05611045,-0.00012185,0.,0.00016234,0.00019313,0.,0
 .00011537,0.00510030,0.,0.00022095,-0.00810007,0.,-0.00645197,0.000146
 88,0.,0.00017854,-0.03298897,0.,-0.32855356,-0.00004068,0.00002386,0.0
 0000891,-0.00004068,-0.00002386,0.00000891,-0.00085876,0.00064976,0.00
 120615,-0.00085876,-0.00064976,0.00120615,-0.00007882,0.,0.00000312,-0
 .00000438,0.00000867,-0.00001850,-0.00000438,-0.00000867,-0.00001850,0
 .04026323,0.,0.36065358,-0.00020595,0.00020963,-0.00037637,-0.00005786
 ,0.00007528,0.00137842,-0.00176951,-0.00435781,-0.00517490,-0.03740206
 ,-0.02781179,0.01510109,0.00026957,-0.00001473,0.00020472,-0.09407766,
 -0.08771846,0.04475382,-0.00035256,0.00004121,-0.00006442,-0.00027593,
 -0.00004810,-0.00010508,0.00036062,0.00066727,0.00041469,-0.00042521,-
 0.00017174,0.00082296,-0.00003048,-0.00000029,-0.00000429,-0.00006544,
 0.00003480,-0.00005414,-0.00004428,-0.00002576,-0.00003889,0.00450176,
 0.00379765,-0.00130310,0.12091557,-0.00026292,0.00010396,-0.00024453,0
 .00018815,-0.00014471,0.00011098,0.00156328,-0.00035567,-0.00092574,-0
 .00115863,0.00931308,-0.00202200,0.00013962,-0.00003596,0.00008226,-0.
 09273621,-0.25930867,0.09653041,-0.00004387,0.00003393,-0.00001277,-0.
 00007331,-0.00000665,-0.00003138,-0.00024387,-0.00023290,0.00013502,0.
 00000972,-0.00014668,0.00000246,-0.00002431,0.00000051,-0.00000689,-0.
 00003007,0.00002544,-0.00001780,-0.00002299,-0.00001718,-0.00001217,0.
 00115104,0.00283954,-0.00167523,0.10343359,0.27353208,0.00016347,-0.00
 000088,0.00002490,-0.00006171,-0.00014596,0.00018220,0.00033600,-0.000
 95038,-0.00086428,-0.00913612,-0.00615547,0.00714632,-0.00003437,0.000
 02909,-0.00001390,0.04976503,0.09619886,-0.11169311,0.00003811,-0.0000
 1370,-0.00001893,-0.00000617,0.00000584,-0.00003128,0.00037240,0.00020
 070,-0.00009911,-0.00067471,-0.00036413,0.00041377,0.00000341,-0.00000
 145,-0.00001286,-0.00000205,0.00000321,0.00001223,-0.00000146,-0.00000
 362,0.00001150,0.01479269,0.03324415,-0.01436073,-0.04993849,-0.106979
 44,0.11040770,-0.00020595,-0.00020963,-0.00037637,-0.00005786,-0.00007
 528,0.00137842,-0.00176951,0.00435781,-0.00517490,-0.03740206,0.027811
 79,0.01510109,0.00026957,0.00001473,0.00020472,-0.09407766,0.08771846,
 0.04475382,-0.00027593,0.00004810,-0.00010508,-0.00035256,-0.00004121,
 -0.00006442,-0.00042521,0.00017174,0.00082296,0.00036062,-0.00066727,0
 .00041469,-0.00003048,0.00000029,-0.00000429,-0.00004428,0.00002576,-0
 .00003889,-0.00006544,-0.00003480,-0.00005414,0.00450176,-0.00379765,-
 0.00130310,0.00865943,-0.01188924,-0.00561602,0.12091557,0.00026292,0.
 00010396,0.00024453,-0.00018815,-0.00014471,-0.00011098,-0.00156328,-0
 .00035567,0.00092574,0.00115863,0.00931308,0.00202200,-0.00013962,-0.0
 0003596,-0.00008226,0.09273621,-0.25930867,-0.09653041,0.00007331,-0.0
 0000665,0.00003138,0.00004387,0.00003393,0.00001277,-0.00000972,-0.000
 14668,-0.00000246,0.00024387,-0.00023290,-0.00013502,0.00002431,0.0000
 0051,0.00000689,0.00002299,-0.00001718,0.00001217,0.00003007,0.0000254
 4,0.00001780,-0.00115104,0.00283954,0.00167523,0.01188924,-0.02560010,
 -0.01506682,-0.10343359,0.27353208,0.00016347,0.00000088,0.00002490,-0
 .00006171,0.00014596,0.00018220,0.00033600,0.00095038,-0.00086429,-0.0
 0913612,0.00615547,0.00714632,-0.00003437,-0.00002909,-0.00001390,0.04
 976503,-0.09619886,-0.11169311,-0.00000617,-0.00000584,-0.00003128,0.0
 0003811,0.00001370,-0.00001893,-0.00067471,0.00036413,0.00041377,0.000
 37240,-0.00020070,-0.00009911,0.00000341,0.00000145,-0.00001286,-0.000
 00146,0.00000362,0.00001150,-0.00000205,-0.00000321,0.00001223,0.01479
 269,-0.03324415,-0.01436073,-0.00561602,0.01506682,0.00889560,-0.04993
 849,0.10697944,0.11040770\\-0.00000779,0.,-0.00009349,0.00009392,0.,0.
 00011616,-0.00014386,0.,0.00003852,0.00006147,0.,-0.00007022,-0.000055
 79,0.,-0.00000223,0.00004542,0.,0.00003052,-0.00000333,0.00001516,-0.0
 0000802,-0.00000333,-0.00001516,-0.00000802,0.00000750,0.00001521,-0.0
 0000446,0.00000750,-0.00001521,-0.00000446,0.00002139,0.,0.00000042,0.
 00001741,-0.00000425,0.00001044,0.00001741,0.00000425,0.00001044,-0.00
 001753,0.,-0.00001211,-0.00002019,-0.00000421,-0.00000174,-0.00002019,
 0.00000421,-0.00000174\\\@


 The juvenile sea squirt wanders through the sea searching
 for a suitable rock or hunk of coral to cling to and make
 its home for life.  For this task it has a rudimentary
 nervous system.  When it finds its spot and takes root, it
 doesn't need its brain any more so it eats it.
 It's rather like getting tenure.

                               -- source unknown
 Job cpu time:       0 days  0 hours  0 minutes 28.3 seconds.
 File lengths (MBytes):  RWF=     19 Int=      0 D2E=      0 Chk=      2 Scr=      1
 Normal termination of Gaussian 09 at Tue Jan  5 09:19:39 2016.
